ITEM: TIMESTEP
0
ITEM: NUMBER OF ATOMS
318
ITEM: BOX BOUNDS ss ss ss
-1.0019552331946517e+01 1.0483159318151134e+01
-8.9716795401554013e+00 9.1921436194483501e+00
-1.0136130453224718e+01 9.9353364565015259e+00
ITEM: ATOMS id type x y z c_centro c_cna
1 2 -8.60782 -3.08293 -3.36072 23.4955 5
2 2 -8.71745 -2.74559 0.164375 12.3044 5
3 2 -9.11417 -2.69846 2.88432 33.8122 5
4 2 -8.50533 0.103626 -6.55077 11.9407 5
5 1 -9.70453 -1.33612 -4.96411 22.8744 5
6 2 -8.60428 -0.227256 -3.07582 1.84998 5
7 1 -10.0175 -1.76987 -1.73583 28.2236 5
8 2 -8.75816 0.0287628 -0.1691 10.561 5
9 2 -8.82793 3.01179 -6.27651 23.7781 5
10 1 -9.83726 1.24641 -4.58493 15.7746 5
11 2 -8.77596 3.24412 -3.30689 7.94035 5
12 1 -10.0101 1.48977 -2.00524 19.6901 5
13 2 -9.07935 2.93054 -0.0408831 26.2138 5
14 2 -8.76979 5.93504 -3.15745 64.2429 5
15 2 -6.02678 -5.8279 -0.00693838 12.6988 5
16 2 -5.94135 -5.92294 2.76648 6.16947 5
17 2 -6.10492 -5.90241 5.50951 12.4383 5
18 2 -5.7999 -6.24566 8.39904 41.4107 5
19 2 -5.58494 -3.30254 -6.0789 20.7287 5
20 2 -5.70226 -3.17755 -3.27616 5.94562 5
21 1 -7.28828 -4.1837 -1.47074 14.2638 5
22 2 -5.76774 -2.9725 0.247355 5.20564 5
23 1 -7.68454 -4.51545 1.69249 6.92925 5
24 2 -5.75114 -3.05288 2.94475 8.35299 5
25 1 -7.67329 -4.28358 4.20927 18.7445 5
26 2 -5.94227 -3.06799 5.7881 4.80963 5
27 2 -5.86184 -3.28863 8.47548 33.0572 5
28 2 -5.68968 0.109863 -8.96577 24.4322 5
29 1 -6.83962 -1.61032 -7.52564 21.4391 5
30 2 -5.6756 0.177873 -6.12256 6.16327 5
31 1 -7.0954 -1.57044 -4.91436 9.57992 5
32 2 -5.82303 -0.0561456 -3.10039 1.05259 3
33 1 -7.05251 -1.68333 -1.54239 8.17973 5
34 2 -5.83209 0.114337 -0.178234 0.954031 3
35 1 -7.28766 -1.1761 1.68418 4.7722 5
36 2 -6.09883 0.4558 3.17649 5.02998 5
37 1 -7.36519 -1.5165 4.23272 11.0834 5
38 2 -6.28802 0.230547 5.93187 25.5021 5
39 1 -6.9385 1.93588 -7.74381 12.7323 5
40 2 -5.56575 2.92192 -5.87738 7.26816 5
41 1 -7.30409 1.46705 -4.54545 5.19632 3
42 2 -5.78396 3.10013 -3.12376 0.776178 3
43 1 -7.35174 1.66791 -1.74721 4.46635 3
44 2 -5.69004 2.94733 -0.239278 1.63117 3
45 1 -7.34563 1.63467 1.3296 6.2565 5
46 2 -5.95142 3.21607 3.00381 11.6463 5
47 1 -6.89805 4.41903 -7.2975 19.7572 5
48 2 -5.74015 6.38357 -6.12183 25.6405 5
49 1 -7.20521 4.63076 -4.87493 4.66477 5
50 2 -6.06879 6.12157 -3.014 8.60735 5
51 1 -7.45803 4.4262 -1.39143 4.71915 5
52 2 -6.06648 6.29087 -0.0933495 16.2887 5
53 1 -7.19108 4.32366 1.12254 13.7165 5
54 2 -2.6888 -8.82363 2.6148 26.5554 5
55 2 -2.76282 -8.96986 5.42829 27.1254 5
56 2 -2.60709 -5.87481 -2.73715 7.82099 5
57 1 -4.21881 -7.05521 -1.17738 19.8198 5
58 2 -2.45984 -5.90483 0.0922033 7.32672 5
59 1 -4.27612 -7.28637 1.36217 12.595 5
60 2 -2.48862 -6.13324 2.86437 8.49229 5
61 1 -4.42541 -7.41354 4.15995 11.8996 5
62 2 -2.52381 -6.18571 5.60288 8.27448 5
63 1 -4.4418 -7.55969 6.69186 16.7812 5
64 2 -2.5574 -6.41745 8.35142 14.7765 5
65 2 -2.84515 -2.98112 -5.93701 6.67286 5
66 1 -4.05274 -4.79379 -4.51044 19.3852 5
67 2 -2.78875 -3.00836 -3.02919 4.94316 5
68 1 -4.36819 -4.44082 -1.40293 6.27521 5
69 2 -2.92338 -2.8645 0.118675 5.27126 5
70 1 -4.11715 -4.63884 1.64177 8.59995 5
71 2 -2.98876 -2.67858 2.99126 2.74328 5
72 1 -4.12329 -4.70871 4.24684 8.47218 5
73 2 -3.03739 -2.86088 5.73602 8.95708 5
74 1 -4.16008 -4.80456 6.87006 8.11966 5
75 2 -3.11353 -2.82182 8.49506 9.59415 5
76 1 -4.12111 -4.80344 9.6792 22.4854 5
77 2 -2.9477 0.0411281 -9.1406 20.1623 5
78 1 -4.28433 -1.65832 -7.61358 6.3293 5
79 2 -2.93467 0.216675 -6.32978 7.79508 5
80 1 -4.1835 -1.30109 -4.61085 9.09531 5
81 2 -2.67931 -0.194115 -2.79567 2.51984 5
82 1 -4.45184 -1.65708 -1.55651 5.2621 5
83 2 -2.84256 -0.0383253 0.086399 0.853977 3
84 1 -4.67997 -1.07726 1.72642 7.59497 5
85 2 -2.87918 0.15663 3.0874 4.55151 5
86 1 -4.61321 -1.23258 4.47585 1.36173 5
87 2 -2.79474 -0.118358 5.88763 2.29117 5
88 1 -4.72447 -1.17301 7.31502 4.80005 5
89 2 -2.87508 -0.0196672 8.83122 10.702 5
90 1 -4.27362 1.98857 -7.90818 5.59225 5
91 2 -2.91601 3.04471 -5.96759 6.01188 5
92 1 -4.07384 1.32815 -4.29313 9.22512 5
93 2 -2.83944 3.14747 -3.08172 1.18157 3
94 1 -4.17284 1.47825 -1.67692 5.46156 3
95 2 -2.95822 3.13666 0.0324673 0.569969 3
96 1 -4.4097 1.53678 1.5278 4.72066 3
97 2 -3.02142 3.20599 2.92161 0.792833 3
98 1 -4.39087 1.68145 4.70384 8.54129 5
99 2 -3.09923 3.33405 6.19937 5.61155 5
100 1 -4.3781 1.41305 7.19169 10.3644 5
101 2 -2.89681 2.94166 8.96277 41.0384 5
102 1 -4.37147 4.55724 -7.41102 12.1123 5
103 2 -2.91654 6.27155 -6.14806 6.79472 5
104 1 -4.29604 4.78273 -4.45433 4.53385 3
105 2 -2.61048 5.94867 -2.9781 1.94779 5
106 1 -4.46109 4.70505 -1.5961 1.00865 3
107 2 -2.76355 5.96435 -0.201206 1.81258 5
108 1 -4.56902 4.74231 1.38137 8.62708 5
109 2 -3.00423 6.09221 3.10194 10.009 5
110 1 -4.53612 4.55318 4.57029 18.3427 5
111 2 -3.05202 6.20918 5.92811 36.8955 5
112 1 -4.21485 7.43371 -4.18811 11.4791 5
113 2 -2.69911 9.19033 -3.23398 40.0568 5
114 1 -4.25151 7.46432 -1.66195 12.9136 5
115 1 -4.16782 7.25315 1.25195 21.0599 5
116 2 0.906718 -8.89727 -0.211059 37.274 5
117 2 0.349378 -6.22693 -5.96428 28.28 5
118 2 0.11846 -5.71782 -3.13221 6.12027 5
119 1 -0.778102 -7.26078 -1.30761 12.8206 5
120 2 0.387365 -5.57014 0.154362 5.16639 5
121 1 -0.839284 -7.64433 1.2803 10.2241 5
122 2 0.222599 -5.9329 2.84747 9.57756 2
123 1 -0.7889 -7.89553 4.149 8.6009 5
124 2 0.236894 -6.02845 5.73412 7.69994 5
125 1 -0.999698 -7.91828 6.88711 31.4505 5
126 2 0.229232 -3.06869 -8.94446 24.2413 5
127 2 -0.112624 -3.02483 -6.22449 9.29172 5
128 1 -1.46574 -4.78545 -4.92002 6.83551 5
129 2 0.0309873 -2.78635 -3.2815 0.862626 5
130 1 -1.15112 -4.11307 -1.3388 5.43085 5
131 2 0.385548 -2.80548 0.26898 5.63944 5
132 1 -1.35498 -4.11129 1.70996 7.77387 5
133 2 0.479059 -3.09819 3.06251 2.9334 5
134 1 -1.43364 -4.24333 4.35365 8.49982 5
135 2 0.537736 -3.30178 5.8876 6.64743 5
136 1 -1.4301 -4.3724 7.15789 8.75419 5
137 2 0.358086 -3.21354 8.79009 27.4869 5
138 1 -1.62765 -4.46771 9.62898 20.1646 5
139 2 -0.105375 0.195718 -9.16648 16.3851 5
140 1 -1.66358 -1.70694 -7.87902 5.20645 5
141 2 -0.258367 0.144386 -6.44028 8.24781 5
142 1 -1.51259 -1.23779 -4.73389 8.43057 5
143 2 0.120077 0.0562666 -2.95089 0.91707 5
144 1 -1.17106 -1.60888 -1.27504 5.22301 5
145 2 0.148342 0.158232 0.047469 0.747479 3
146 1 -1.20855 -1.4042 1.73707 8.31769 3
147 2 -0.0941937 0.321857 3.24253 2.86484 5
148 1 -1.04229 -1.71028 4.51677 8.58816 5
149 2 0.101418 0.135932 5.95435 6.49357 5
150 1 -1.13894 -1.77401 7.08098 9.3435 5
151 2 0.0607259 0.00834362 8.79831 11.0797 5
152 1 -1.32158 -1.77354 9.93333 22.8665 5
153 1 -1.77507 1.98716 -8.05536 9.37063 5
154 2 -0.241744 2.93988 -6.31925 4.60106 5
155 1 -1.49326 1.40904 -4.44607 9.16373 5
156 2 0.113812 2.98311 -3.16084 6.07076 5
157 1 -1.41616 1.64242 -1.42562 4.29911 3
158 2 0.255265 3.01912 0.142047 0.848294 3
159 1 -1.44263 1.68664 1.49122 0.435597 3
160 2 0.117443 3.13997 3.11201 1.04963 5
161 1 -1.73472 1.8877 4.69321 6.88623 5
162 2 0.163195 3.07218 5.94903 4.43503 5
163 1 -1.41588 1.56159 7.32901 4.34188 5
164 2 0.0312623 3.10103 8.84558 11.8734 5
165 1 -1.76129 4.50699 -7.67169 13.4183 5
166 2 -0.168962 6.27619 -6.60215 15.4332 5
167 1 -1.28516 4.66005 -4.71936 5.96801 5
168 2 0.175034 5.97594 -2.9499 7.33576 5
169 1 -1.21346 4.26605 -1.4368 5.15098 5
170 2 0.0633213 6.04048 -0.158299 1.9839 5
171 1 -1.35861 4.66055 1.58848 5.19111 3
172 2 -0.107749 6.42995 3.13526 10.9235 5
173 1 -1.35073 4.56144 4.58268 4.59649 5
174 2 -0.212562 6.59007 5.89458 28.4466 5
175 1 -1.32946 4.74425 7.34525 9.39893 5
176 1 -1.23733 7.49094 -4.55021 10.295 5
177 2 0.295254 8.79117 -2.9114 12.4548 5
178 1 -1.6686 7.82174 -1.36887 6.45287 5
179 2 0.24709 8.82541 -0.0676798 25.6289 5
180 1 -1.53937 7.53393 1.34104 12.198 5
181 2 2.88101 -8.93185 -2.52009 38.4757 5
182 2 3.16784 -6.03537 -5.82708 6.19744 5
183 1 1.71979 -7.46109 -4.1365 16.6489 5
184 2 3.17615 -5.51916 -3.07458 1.05424 5
185 1 1.71242 -6.93047 -1.53943 8.8904 5
186 2 3.24618 -5.50839 -0.202884 1.9712 5
187 1 1.93836 -7.23114 1.37985 12.7057 5
188 2 3.76435 -6.27214 3.04568 9.95944 5
189 1 1.804 -7.31216 4.10969 21.5749 5
190 2 3.13796 -3.06894 -8.95864 20.1591 5
191 1 1.69944 -4.51144 -7.36768 10.7566 5
192 2 3.10255 -2.61254 -6.17772 1.25486 5
193 1 1.68909 -4.20579 -4.79184 5.36236 3
194 2 2.87166 -2.53256 -3.31451 1.44466 5
195 1 1.56297 -3.99935 -1.62934 5.06763 5
196 2 3.17045 -2.67574 0.271295 5.1779 5
197 1 2.20432 -4.63398 1.86633 7.32607 5
198 2 3.22022 -2.72824 3.09226 2.21983 5
199 1 2.16767 -4.77175 4.40372 6.59776 5
200 2 3.26677 -2.92163 5.9319 8.84964 5
201 1 1.65537 -1.34538 -10.1341 46.3228 5
202 1 1.59539 -1.11565 -7.65298 3.57304 5
203 2 3.1575 0.266236 -6.26011 4.16121 5
204 1 1.26787 -1.15537 -4.99572 8.33888 5
205 2 2.87051 0.197522 -3.3037 1.83795 5
206 1 1.6748 -1.33875 -1.43142 11.0487 5
207 2 3.14573 0.179469 0.187342 10.8413 5
208 1 1.50019 -1.07738 1.88853 7.39445 5
209 2 3.42419 0.115615 3.0577 1.96554 5
210 1 1.6137 -1.22711 4.45943 7.86751 5
211 2 3.32173 -0.0328445 5.93963 1.8162 5
212 1 1.61356 -1.41205 7.35343 4.30337 5
213 2 3.40209 -0.0879715 8.72562 11.3226 5
214 1 1.49184 1.64773 -7.64364 12.8535 5
215 2 3.13947 3.02247 -6.19222 4.72974 5
216 1 1.26152 1.43949 -4.91876 6.3004 5
217 2 2.82928 2.99671 -3.35967 5.86361 5
218 1 1.67862 1.63182 -1.44767 5.22379 5
219 2 3.14262 3.07784 0.220729 12.0061 5
220 1 1.66121 1.50445 1.82641 4.39754 5
221 2 3.0034 3.35257 3.03977 2.15032 5
222 1 1.84254 1.52458 4.56603 4.76807 5
223 2 2.86094 3.48777 5.86101 3.0943 5
224 1 1.83608 1.52222 7.28402 10.478 5
225 2 2.78138 3.57696 8.76474 12.4031 5
226 1 1.78568 1.45224 9.8904 20.5977 5
227 1 1.36133 4.37749 -7.38945 16.405 5
228 2 3.21447 5.83727 -6.16319 13.016 5
229 1 1.18643 4.59852 -4.91238 6.97094 5
230 2 2.90184 5.76031 -3.33809 3.27643 2
231 1 1.75946 4.49087 -1.40082 4.77424 5
232 2 3.37519 5.87398 0.198443 9.15245 5
233 1 1.32561 4.82036 1.64527 8.26689 5
234 2 3.24103 6.1167 3.05833 18.811 5
235 1 1.47348 5.05785 4.59332 5.79733 5
236 1 1.19827 5.01341 7.22835 12.4597 5
237 1 1.39271 7.27322 -4.91818 10.4331 5
238 2 3.02704 8.53771 -3.39132 27.5226 5
239 1 1.97084 7.32279 -1.31563 5.47597 5
240 1 1.62064 7.33267 1.45922 15.1335 5
241 2 5.93005 -6.01628 -5.69025 26.7292 5
242 1 4.48405 -7.46831 -4.06961 16.8718 5
243 2 6.0435 -5.48265 -2.93642 5.58877 5
244 1 4.50665 -7.28798 -1.61403 10.5463 5
245 2 6.13852 -5.59646 -0.233361 10.6217 5
246 1 4.5504 -7.2351 0.926975 25.6883 5
247 1 4.50041 -4.52849 -7.31591 17.7071 5
248 2 5.972 -2.57337 -6.51441 10.8581 5
249 1 4.65041 -3.87509 -4.61622 4.68595 5
250 2 6.17405 -2.58936 -2.99983 4.96798 5
251 1 4.31227 -3.74557 -1.71106 6.93677 5
252 2 6.01715 -2.673 -0.188851 2.46086 5
253 1 4.84379 -4.2708 1.67063 8.8699 5
254 2 6.51727 -2.98272 3.12848 4.92317 5
255 1 4.77394 -4.36316 4.28706 11.4606 5
256 2 6.42833 -3.21925 6.0086 27.6903 5
257 1 4.28743 -1.0761 -8.11874 14.4262 5
258 2 5.85662 0.203724 -6.52413 13.1962 5
259 1 4.71498 -1.15129 -4.55344 4.21587 5
260 2 6.10907 0.198407 -2.8862 2.21716 5
261 1 4.29342 -1.18541 -1.66251 10.1163 5
262 2 5.87985 0.199622 -0.0349126 5.06027 5
263 1 5.0207 -1.4714 1.82528 5.23771 5
264 2 6.36433 0.281737 3.15975 4.53098 5
265 1 4.98496 -1.45496 4.53231 7.04189 5
266 2 6.07763 0.336283 5.94278 2.53467 5
267 1 4.99797 -1.65085 7.37451 11.0258 5
268 2 6.17827 0.222145 8.85229 17.7602 5
269 2 5.89729 2.98017 -6.48859 21.3773 5
270 1 4.74199 1.5843 -4.5255 5.62266 5
271 2 6.19272 2.93845 -2.90162 8.75953 5
272 1 4.22102 1.65903 -1.67871 5.43584 5
273 2 5.94358 2.99535 -0.157986 3.26316 5
274 1 4.80246 1.88716 1.87195 7.56272 5
275 2 6.46605 3.16229 3.27385 4.62197 5
276 1 4.46383 1.92371 4.60968 9.78169 5
277 2 6.32975 3.10509 5.95878 6.28852 5
278 1 4.34866 1.91484 7.26343 7.01244 5
279 2 6.37779 3.06202 8.66963 28.3022 5
280 1 4.3884 1.98651 9.79985 19.2873 5
281 2 6.03372 5.79474 -6.36318 43.7684 5
282 1 4.78139 4.34066 -4.45046 8.46476 5
283 2 6.43774 5.7305 -2.86862 11.5657 5
284 1 4.33159 4.33761 -1.76568 10.4369 5
285 2 6.16454 5.86518 -0.122408 15.8407 5
286 1 4.96275 4.54217 1.83544 5.33233 5
287 1 4.76107 4.59743 4.57972 12.4535 5
288 1 4.66643 4.50443 7.27175 22.5175 5
289 1 4.9059 6.99048 -4.41656 15.7038 5
290 1 4.46635 7.00989 -1.80221 9.67427 5
291 1 7.2358 -3.96496 -4.86784 15.2947 5
292 2 8.91278 -2.58876 -3.37549 20.6607 5
293 1 7.88425 -3.94551 -1.50236 10.5078 5
294 2 9.4383 -2.72275 0.033768 18.2652 5
295 1 7.59423 -4.09724 1.19308 11.4812 5
296 2 9.21977 -2.70398 2.83179 32.9112 5
297 1 7.32051 -1.07294 -4.89057 12.0262 5
298 2 8.83459 0.201714 -3.25133 12.9128 5
299 1 7.77265 -1.10157 -1.25792 9.33788 5
300 2 9.45981 0.141653 0.260434 9.23535 5
301 1 7.53238 -1.18618 1.36613 7.31312 5
302 2 9.25922 0.100667 3.03694 15.1126 5
303 1 7.74282 -1.37521 4.70966 4.84461 5
304 2 9.5089 -0.0699969 6.0336 37.0068 5
305 1 7.57346 -1.23421 7.18806 14.6423 5
306 1 7.35737 1.59334 -4.86496 6.33962 5
307 2 8.98951 2.97502 -3.23648 19.0739 5
308 1 7.81099 1.46962 -1.22797 9.77263 5
309 2 9.55569 2.99363 0.132667 13.1711 5
310 1 7.56527 1.60415 1.30755 10.7532 5
311 2 9.26179 2.96697 2.89732 30.6592 5
312 1 8.09208 1.66068 4.82074 5.10743 5
313 1 7.97896 1.47912 7.35853 18.539 5
314 1 7.39069 4.22092 -4.82855 17.4775 5
315 1 7.97423 4.2118 -1.30194 10.0384 5
316 1 7.59307 4.25857 1.31147 9.59059 5
317 1 10.4096 -1.14543 -1.76732 23.3526 5
318 1 10.4811 1.43583 -1.71688 24.6755 5
