LAMMPS data file - NiTi nanoparticle D=10.0nm shape=blob Ni50.0Ti50.0

39601 atoms
2 atom types

-71.146576 71.146576 xlo xhi
-71.146576 71.146576 ylo yhi
-71.146576 71.146576 zlo zhi

Masses

1 58.6934  # Ni
2 47.8670  # Ti

Atoms # atomic

1 2 -52.581178 -13.497966 -13.329794
2 2 -52.287927 -13.536092 -10.508588
3 2 -52.584282 -13.791391 -7.607124
4 2 -52.670603 -10.907719 -19.135542
5 2 -52.321878 -10.399871 -16.026594
6 2 -52.213856 -10.680821 -13.051137
7 2 -52.137151 -10.779806 -10.117726
8 2 -52.571163 -10.142112 -7.476806
9 2 -52.591087 -10.572480 -4.653024
10 2 -52.876615 -11.196200 -1.662899
11 2 -51.637154 -7.283557 -21.887852
12 2 -52.526225 -7.568951 -18.917378
13 1 -53.824495 -9.223268 -17.736590
14 2 -52.053146 -7.858256 -16.279820
15 1 -54.348347 -8.574430 -14.842859
16 2 -52.240445 -7.493312 -13.942068
17 1 -54.070879 -8.654906 -11.296336
18 2 -52.345177 -7.634688 -10.228401
19 1 -53.684559 -8.895227 -8.860944
20 2 -52.365884 -7.414622 -7.285134
21 1 -53.386777 -9.548293 -5.939309
22 2 -52.711392 -7.071740 -4.402391
23 2 -52.261536 -6.997419 -1.670839
24 2 -52.589334 -4.013541 -25.802915
25 2 -52.579162 -4.895259 -22.038861
26 1 -54.113033 -5.814377 -20.738607
27 2 -52.672463 -4.986808 -19.501083
28 1 -54.008889 -5.938494 -17.943992
29 2 -52.580667 -4.574820 -16.330157
30 1 -54.186180 -5.948992 -15.082147
31 2 -52.341162 -4.078516 -13.058378
32 1 -53.549066 -6.020981 -11.972804
33 2 -52.812876 -4.516031 -10.482427
34 1 -54.123857 -6.107723 -9.394271
35 2 -52.834874 -4.399322 -7.350170
36 1 -53.792146 -5.998309 -5.863901
37 2 -52.053259 -4.428702 -4.550484
38 1 -54.296858 -5.679812 -3.365973
39 2 -52.683071 -4.286551 -1.919741
40 2 -52.615515 -4.373808 1.554509
41 2 -52.726568 -1.576676 -28.233594
42 2 -51.878127 -1.355696 -26.064383
43 1 -53.766505 -3.024762 -24.287685
44 2 -52.671570 -1.626226 -22.875285
45 1 -53.956803 -2.354066 -21.273821
46 2 -51.888387 -1.335005 -19.462923
47 1 -54.034858 -3.148305 -17.839421
48 2 -52.272911 -2.128933 -15.653189
49 1 -54.483800 -3.062734 -15.683739
50 2 -52.511062 -1.536884 -13.559190
51 1 -53.846031 -2.978761 -11.735082
52 2 -52.803343 -1.374421 -10.580367
53 1 -54.049445 -2.823742 -9.034463
54 2 -52.461995 -1.745757 -7.044618
55 1 -53.718161 -2.875107 -5.940577
56 2 -52.461755 -1.073934 -4.161647
57 1 -53.608898 -3.008332 -2.706670
58 2 -52.071902 -1.676985 -1.643111
59 2 -52.347313 -1.770087 1.122614
60 2 -52.076132 2.023941 -31.850691
61 2 -52.862031 1.420311 -28.102193
62 1 -54.061625 0.138298 -26.874451
63 2 -52.377872 2.067710 -25.681962
64 1 -53.968603 0.179824 -23.972187
65 2 -52.797846 1.173278 -22.900198
66 1 -53.718822 -0.137604 -20.800929
67 2 -52.404134 1.323328 -19.721309
68 1 -53.897382 0.133170 -17.779067
69 2 -52.568225 1.361965 -16.386789
70 1 -53.509682 -0.456071 -15.153329
71 2 -52.252270 1.682518 -13.222502
72 1 -54.067328 -0.376245 -11.393460
73 2 -52.103511 1.609958 -10.643676
74 1 -54.085693 0.178816 -8.958282
75 2 -52.434659 2.102704 -7.096427
76 1 -54.290777 0.132939 -6.024304
77 2 -52.340458 1.598153 -3.465154
78 1 -53.808365 0.069291 -2.296749
79 2 -52.368314 1.159352 -1.382436
80 2 -52.245256 1.763333 1.973145
81 2 -52.383942 4.657306 -31.917761
82 2 -51.969468 4.540108 -28.775245
83 1 -53.145473 3.631294 -27.107411
84 2 -52.997310 4.415629 -24.988806
85 1 -53.884508 2.717893 -23.721044
86 2 -52.493560 4.436664 -22.622626
87 1 -53.543910 3.289559 -21.390461
88 2 -52.319580 4.664694 -19.561668
89 1 -54.048643 2.863934 -18.127167
90 2 -52.342936 4.548560 -16.255392
91 1 -54.174459 3.338057 -14.516110
92 2 -52.432333 4.789217 -13.236183
93 1 -54.089170 3.294602 -12.581348
94 2 -53.234257 4.532910 -10.198925
95 1 -53.963431 3.349629 -9.244738
96 2 -52.164111 5.123335 -7.584883
97 1 -53.705331 3.131628 -5.734200
98 2 -51.939804 4.730930 -4.129436
99 1 -54.318595 3.345940 -2.366998
100 2 -52.708723 4.534856 -1.138048
101 2 -52.295280 4.222290 1.719806
102 2 -52.530591 7.355198 -31.085862
103 2 -52.428641 7.943637 -28.833699
104 1 -53.760220 6.459847 -27.045423
105 2 -52.580187 7.254010 -25.726633
106 1 -54.074256 5.845511 -24.188951
107 2 -52.382621 7.731001 -22.121025
108 1 -54.167462 6.146738 -21.068350
109 2 -52.577529 7.551932 -19.494062
110 1 -53.862293 6.040145 -17.557375
111 2 -52.944164 7.965015 -16.531019
112 1 -53.994720 6.136849 -14.699664
113 2 -52.695695 7.449205 -13.253996
114 1 -54.449788 6.129447 -12.137930
115 2 -52.734268 7.153251 -10.157066
116 1 -53.889901 5.937055 -8.932029
117 2 -52.759791 7.485588 -7.434716
118 1 -53.918506 6.257955 -6.411879
119 2 -52.311142 7.127011 -4.229808
120 1 -54.002101 6.468823 -3.055769
121 2 -52.194864 7.295279 -1.312990
122 2 -53.044745 10.928491 -30.974263
123 2 -52.640801 10.699221 -28.346098
124 1 -54.405189 8.928892 -27.216934
125 2 -51.704558 10.977557 -25.530365
126 1 -53.702907 9.218440 -23.778614
127 2 -52.747922 11.076321 -22.681389
128 1 -54.153653 9.332701 -20.838168
129 2 -52.423306 10.915387 -19.784973
130 1 -53.381715 9.003800 -17.954071
131 2 -51.869550 10.448352 -16.111468
132 1 -54.002405 8.900935 -15.028112
133 2 -52.259554 10.968049 -13.336895
134 1 -54.419567 9.346361 -11.940268
135 2 -52.762686 10.766685 -10.048062
136 1 -53.935762 9.433133 -8.743002
137 2 -52.286983 10.570143 -7.128078
138 1 -53.662162 9.393737 -5.962022
139 2 -52.133286 10.778722 -4.653071
140 1 -54.052807 8.994829 -3.451766
141 2 -52.127758 11.597256 -0.980598
142 2 -52.381185 13.521728 -28.758828
143 1 -53.892368 12.461692 -27.175802
144 2 -51.657163 13.259974 -25.397229
145 1 -53.916594 12.171746 -24.128925
146 2 -52.405424 13.541642 -22.061616
147 1 -53.449124 12.052602 -21.438374
148 2 -52.334517 13.762149 -19.403193
149 1 -53.777102 12.586278 -17.676274
150 2 -52.270060 13.904553 -16.344095
151 1 -54.222838 12.607060 -14.881486
152 2 -52.715488 13.337162 -13.681631
153 1 -54.309448 12.371416 -11.950211
154 2 -52.196322 14.029844 -10.115314
155 1 -53.746629 12.256438 -8.939809
156 2 -52.467567 13.853433 -7.664751
157 1 -53.954034 11.945781 -5.513761
158 2 -52.214095 14.321690 -4.588362
159 2 -52.626405 16.709584 -25.683641
160 1 -53.775695 15.169385 -24.104707
161 2 -52.102375 16.134597 -22.286468
162 1 -54.103954 15.431000 -20.623954
163 2 -53.116607 16.628444 -19.417370
164 1 -54.648675 15.253415 -18.086623
165 2 -52.793814 16.496125 -16.668144
166 1 -54.109901 15.240562 -14.616569
167 2 -52.453755 17.024729 -13.720271
168 1 -53.891691 15.819891 -12.376970
169 2 -52.921358 17.078159 -10.323427
170 1 -54.119140 14.844151 -8.893265
171 2 -52.390013 16.734014 -7.718458
172 2 -52.531877 16.520971 -4.165012
173 2 -52.756043 19.730170 -21.655696
174 1 -54.284130 17.974448 -20.970714
175 2 -53.317377 19.277059 -19.341241
176 1 -53.990752 18.517742 -17.999210
177 2 -52.528620 19.495332 -16.523283
178 1 -54.303081 18.155287 -15.205249
179 2 -52.795333 19.514451 -13.268892
180 1 -53.894897 18.401031 -12.175771
181 2 -52.434266 20.220338 -9.968564
182 2 -49.799590 -16.776786 -15.908128
183 2 -49.279145 -16.530257 -13.496092
184 2 -49.346708 -16.400394 -10.550663
185 2 -49.464492 -16.644071 -7.324040
186 2 -49.637664 -16.854978 -3.915089
187 2 -49.436264 -15.961090 -1.927498
188 2 -49.852303 -16.332014 1.649362
189 2 -49.764331 -13.115099 -22.712188
190 2 -49.053924 -13.478988 -19.757499
191 2 -49.616912 -13.044048 -16.509686
192 1 -50.629627 -14.543020 -14.936663
193 2 -49.482580 -13.579850 -13.298757
194 1 -50.468749 -15.335204 -11.831340
195 2 -49.362260 -14.001715 -10.657486
196 1 -51.128574 -14.734897 -8.599321
197 2 -49.980714 -13.265033 -7.221172
198 1 -50.748404 -14.919199 -5.580857
199 2 -49.062074 -13.950363 -4.374605
200 1 -50.999516 -15.137935 -2.989449
201 2 -49.358972 -13.848680 -1.142722
202 2 -49.526578 -13.194046 1.483176
203 2 -49.618533 -13.742809 4.499857
204 2 -49.656918 -10.311676 -25.149212
205 2 -49.298345 -10.466095 -22.303118
206 1 -50.933768 -11.941637 -21.034867
207 2 -49.163055 -11.216381 -20.077969
208 1 -50.613079 -12.009505 -17.650869
209 2 -49.598623 -9.937968 -16.461075
210 1 -50.787296 -12.085067 -15.182900
211 2 -49.940177 -10.205862 -13.285697
212 1 -50.894539 -12.293545 -11.470652
213 2 -49.383367 -10.230831 -10.390816
214 1 -51.251248 -11.651033 -8.746508
215 2 -49.469982 -10.312001 -7.128426
216 1 -50.723735 -12.466217 -6.316711
217 2 -49.194333 -10.652632 -4.676072
218 1 -50.810598 -12.275554 -2.996876
219 2 -49.158328 -10.899266 -1.757446
220 1 -51.408503 -12.209893 0.187524
221 2 -49.601852 -9.989492 1.807361
222 1 -50.928461 -11.568128 2.776347
223 2 -49.154016 -10.513984 4.547805
224 2 -49.231049 -10.567124 7.754929
225 2 -49.445410 -7.335357 -28.632800
226 2 -49.135869 -8.044072 -25.271686
227 1 -51.492996 -9.162417 -23.799924
228 2 -50.022409 -7.377558 -22.863376
229 1 -51.214962 -9.241297 -21.347430
230 2 -49.936765 -6.803289 -19.489930
231 1 -51.295870 -9.104733 -17.916362
232 2 -49.529464 -7.809705 -16.691033
233 1 -50.565294 -9.358170 -15.514502
234 2 -49.532256 -8.010165 -13.679212
235 1 -51.300246 -9.310074 -11.876452
236 2 -49.337785 -7.670732 -10.418371
237 1 -51.180787 -8.814399 -9.327931
238 2 -49.365467 -7.355066 -6.670617
239 1 -51.451752 -8.134540 -5.639274
240 2 -48.864352 -7.154815 -4.644392
241 1 -50.724449 -9.135947 -2.878991
242 2 -49.769455 -7.632380 -1.074476
243 1 -50.790743 -8.626447 -0.258855
244 2 -49.979225 -7.095585 1.979928
245 1 -50.859009 -8.808856 3.438394
246 2 -49.360558 -7.265947 4.930754
247 2 -49.443482 -7.531949 7.815274
248 2 -48.732506 -4.668329 -31.624783
249 2 -49.944845 -4.281659 -28.639690
250 1 -51.344988 -5.939425 -26.521783
251 2 -49.521423 -4.491297 -25.026019
252 1 -50.924297 -6.284356 -23.749682
253 2 -49.076222 -4.473165 -22.410571
254 1 -51.318110 -6.182734 -21.042826
255 2 -49.392093 -4.599606 -19.546705
256 1 -50.960118 -6.221157 -18.008458
257 2 -49.066771 -4.592453 -16.691546
258 1 -50.294122 -5.852233 -15.145426
259 2 -49.221272 -4.335536 -13.576826
260 1 -50.937546 -6.008121 -11.598905
261 2 -49.209863 -5.058850 -9.816188
262 1 -51.009715 -5.400960 -8.666525
263 2 -49.340446 -4.441142 -6.543144
264 1 -51.004690 -6.122659 -6.042680
265 2 -49.414968 -4.412959 -4.057202
266 1 -50.694175 -5.691266 -2.921229
267 2 -49.211316 -4.177191 -1.368832
268 1 -50.838609 -5.685073 0.226251
269 2 -49.322854 -3.988513 1.736118
270 1 -51.106019 -6.325975 3.211700
271 2 -49.515225 -4.169046 5.160761
272 2 -49.725743 -4.679835 7.692801
273 2 -49.656467 -1.464693 -31.656571
274 1 -51.226632 -2.656248 -29.964717
275 2 -48.863431 -1.289512 -28.091422
276 1 -51.142520 -3.128726 -26.302822
277 2 -49.598876 -1.683921 -25.818046
278 1 -50.345189 -2.988073 -23.835792
279 2 -49.369641 -1.615860 -22.539250
280 1 -50.667814 -3.274848 -20.739153
281 2 -48.982925 -1.309601 -19.032895
282 1 -51.336268 -3.457010 -17.854258
283 2 -49.592070 -1.132805 -16.513514
284 1 -50.878409 -2.880836 -14.878380
285 2 -49.578895 -1.809194 -13.471001
286 1 -50.485600 -3.088814 -12.082640
287 2 -49.367757 -1.752649 -10.087363
288 1 -51.248931 -2.992475 -8.116934
289 2 -49.759770 -0.953832 -7.338359
290 1 -50.843698 -3.149275 -5.626592
291 2 -49.525614 -1.743809 -3.921033
292 1 -51.039121 -3.465856 -2.933430
293 2 -49.171654 -1.202271 -1.538140
294 1 -51.217498 -3.317155 0.155722
295 2 -49.369762 -1.184001 1.625151
296 1 -50.976656 -2.989218 3.223625
297 2 -49.455587 -1.114617 4.778805
298 2 -49.382725 -1.410335 7.416125
299 2 -49.415484 1.422320 -34.405430
300 1 -50.985758 0.611539 -33.382893
301 2 -50.350094 1.697948 -31.688854
302 1 -50.874228 -0.262797 -29.411864
303 2 -49.531820 1.403802 -27.909932
304 1 -50.669424 0.528685 -27.024326
305 2 -49.401144 1.437335 -25.680027
306 1 -50.802718 -0.001341 -23.287838
307 2 -49.161266 2.185051 -23.121862
308 1 -50.351318 -0.609314 -21.322580
309 2 -49.943710 1.690527 -19.440401
310 1 -50.683119 0.083076 -17.558047
311 2 -49.696494 1.993569 -16.429183
312 1 -50.212496 0.372628 -15.003969
313 2 -49.425560 1.312999 -13.296568
314 1 -51.014503 0.328085 -12.300822
315 2 -49.514684 1.267652 -10.720763
316 1 -50.740063 0.448786 -9.585677
317 2 -48.853932 2.040580 -7.780938
318 1 -50.673494 -0.028998 -5.896992
319 2 -49.233768 1.761967 -4.532673
320 1 -51.096823 -0.046497 -2.507852
321 2 -49.976625 1.568431 -0.870792
322 1 -50.710621 0.426613 0.117945
323 2 -49.766102 1.634038 1.462371
324 1 -50.250235 0.062057 3.369779
325 2 -48.902016 1.286578 3.997747
326 2 -49.267548 1.821764 7.575235
327 2 -49.763898 4.725658 -34.517075
328 1 -50.825644 2.783162 -32.904489
329 2 -49.168197 4.178223 -31.054599
330 1 -50.846058 3.381308 -30.373012
331 2 -49.209488 4.136388 -28.765811
332 1 -50.843382 3.041549 -26.964125
333 2 -48.834180 4.635810 -25.250940
334 1 -50.942917 3.095688 -24.252363
335 2 -49.304299 5.396695 -22.423424
336 1 -51.003290 3.468500 -20.634040
337 2 -49.282912 4.539275 -19.089870
338 1 -50.886327 3.400247 -18.174433
339 2 -49.592180 4.661457 -16.792330
340 1 -51.034313 2.738967 -15.378158
341 2 -48.680836 4.448642 -13.562006
342 1 -50.898601 2.804634 -12.048668
343 2 -48.862213 4.740215 -10.092611
344 1 -50.448349 3.188259 -8.949120
345 2 -49.847594 4.516805 -7.423908
346 1 -51.166182 3.590633 -5.535073
347 2 -49.118146 4.597213 -4.671374
348 1 -50.522395 3.225859 -2.619331
349 2 -49.228584 4.725902 -0.742031
350 1 -51.120992 3.031606 0.657394
351 2 -49.390545 4.594279 1.593803
352 1 -50.717978 3.055618 3.074607
353 2 -49.215448 4.660365 4.380737
354 2 -49.405634 8.067699 -34.279175
355 1 -50.465116 5.919261 -32.679741
356 2 -49.610815 7.275681 -31.737039
357 1 -50.883167 6.449675 -29.893825
358 2 -49.461502 7.336036 -28.267258
359 1 -50.632255 6.229680 -27.289689
360 2 -49.171462 8.017262 -25.002710
361 1 -51.054753 6.271294 -24.118576
362 2 -49.693379 8.124584 -22.279698
363 1 -50.533024 5.770463 -20.855457
364 2 -49.262035 7.396346 -18.986332
365 1 -50.996812 6.276519 -18.093318
366 2 -49.775401 7.922535 -16.305625
367 1 -50.851256 6.055880 -14.806338
368 2 -49.033517 7.441079 -13.235993
369 1 -50.861737 6.084147 -12.393550
370 2 -49.418903 7.850063 -10.292237
371 1 -51.356548 6.515735 -8.385567
372 2 -49.448301 8.344037 -7.625024
373 1 -51.306325 5.833779 -5.793506
374 2 -49.951459 7.553508 -3.475148
375 1 -51.376190 5.974794 -3.164789
376 2 -49.501160 7.542278 -1.546788
377 1 -50.969913 6.330659 0.580267
378 2 -49.501042 7.648992 1.809757
379 1 -51.295375 6.093724 3.025168
380 2 -49.128280 8.175423 4.450801
381 2 -49.029370 10.222549 -34.449412
382 1 -50.844398 8.707348 -33.252186
383 2 -49.694392 10.266861 -32.298780
384 1 -50.985273 9.128585 -30.015944
385 2 -49.184427 10.077992 -28.594802
386 1 -50.150954 9.422105 -26.703337
387 2 -49.721791 10.603183 -26.158323
388 1 -50.746264 9.576938 -24.394529
389 2 -49.764691 10.652591 -22.403697
390 1 -51.086118 8.908914 -21.185019
391 2 -49.430070 10.838968 -19.449780
392 1 -50.966463 8.624333 -17.665997
393 2 -49.430782 10.530605 -16.342991
394 1 -51.177196 9.029366 -14.879977
395 2 -49.619872 10.166077 -13.950169
396 1 -50.788399 9.145368 -11.917456
397 2 -49.765571 10.656052 -10.510652
398 1 -51.103706 9.132120 -8.793041
399 2 -48.887692 10.832684 -7.116360
400 1 -50.589734 8.924395 -5.964162
401 2 -49.688118 10.456678 -4.489030
402 1 -51.135542 9.222315 -2.721913
403 2 -49.809089 10.568155 -1.435706
404 1 -51.366718 8.923755 0.425931
405 2 -49.155823 10.171047 1.812432
406 1 -51.366079 9.033701 3.148243
407 2 -49.188326 10.609610 4.379406
408 2 -49.772246 13.727896 -34.701005
409 1 -51.046008 12.462343 -32.871293
410 2 -48.936838 13.370261 -31.708736
411 1 -50.867406 12.718115 -30.227067
412 2 -49.403707 14.075599 -28.464864
413 1 -50.615256 12.759931 -26.883435
414 2 -49.277055 13.901246 -25.737583
415 1 -51.369480 12.217521 -24.145891
416 2 -49.097881 13.772008 -22.137618
417 1 -51.285085 12.471711 -21.635491
418 2 -49.752850 13.867868 -19.586437
419 1 -51.045287 12.202079 -17.498695
420 2 -49.994701 14.053733 -16.025716
421 1 -51.074856 11.960240 -14.947983
422 2 -49.631213 13.781198 -13.261699
423 1 -51.391291 11.892260 -12.254734
424 2 -49.350559 13.940256 -10.713556
425 1 -50.661907 11.890921 -8.665750
426 2 -49.500832 13.544075 -7.030466
427 1 -50.383799 11.584310 -5.686685
428 2 -49.361821 13.875599 -4.793627
429 1 -51.249710 11.967312 -2.788176
430 2 -49.636182 13.579856 -1.094511
431 1 -50.305070 12.398647 0.421693
432 2 -49.470115 13.408731 1.571809
433 2 -49.432745 16.342466 -31.249156
434 1 -50.464673 15.221658 -29.660567
435 2 -49.050945 16.380301 -29.003863
436 1 -51.073241 15.213656 -27.333049
437 2 -48.986487 17.279811 -25.410887
438 1 -51.218799 15.331366 -24.254374
439 2 -49.070645 16.622471 -22.230648
440 1 -50.650865 15.346942 -20.404153
441 2 -49.361538 16.540534 -20.068725
442 1 -51.611402 15.381337 -17.982844
443 2 -49.661129 16.356405 -16.196517
444 1 -51.219323 15.676392 -14.203592
445 2 -49.686648 16.894200 -13.272248
446 1 -51.220563 14.888678 -11.934376
447 2 -49.758512 17.021262 -10.464117
448 1 -51.260657 15.157918 -8.741788
449 2 -49.633708 16.091331 -7.336815
450 1 -51.289713 14.945433 -5.725980
451 2 -49.592539 16.649703 -3.921820
452 1 -51.028927 15.794175 -2.629331
453 2 -49.696097 16.548627 -1.725602
454 2 -49.223094 20.106589 -28.587971
455 1 -51.483998 18.308429 -27.232303
456 2 -49.629554 19.801173 -25.093472
457 1 -50.699828 18.329242 -24.004826
458 2 -49.813399 19.812152 -22.233519
459 1 -51.102205 18.089289 -20.607734
460 2 -49.533619 19.625674 -19.461567
461 1 -50.722122 18.288187 -17.861307
462 2 -48.957650 19.583778 -16.706501
463 1 -50.614625 18.269374 -15.090073
464 2 -49.523787 19.323158 -13.335063
465 1 -51.363406 18.405379 -12.054919
466 2 -49.835588 20.038068 -9.709612
467 1 -50.790935 18.113693 -9.171876
468 2 -49.336344 19.899223 -7.372837
469 1 -50.652813 18.656186 -6.247211
470 2 -49.326632 19.133393 -4.605351
471 1 -50.705748 18.185636 -3.338101
472 2 -49.098739 19.543463 -1.088372
473 2 -49.260714 22.471060 -25.202940
474 1 -50.826724 21.267525 -24.098562
475 2 -49.747759 22.596016 -22.582710
476 1 -50.666024 20.717579 -20.498994
477 2 -48.955320 22.528985 -19.012340
478 1 -51.225970 21.554576 -18.174542
479 2 -49.103706 22.288874 -16.093435
480 1 -50.534280 20.771672 -14.382601
481 2 -49.108211 22.119853 -13.552638
482 1 -50.609950 21.432766 -11.863711
483 2 -49.135506 22.458728 -10.375635
484 1 -51.177730 21.255393 -8.580604
485 2 -49.179647 22.789449 -7.076522
486 1 -50.594702 21.756641 -5.515423
487 2 -49.217376 23.003876 -4.286482
488 2 -49.499692 25.998832 -19.206642
489 1 -50.834763 24.171078 -18.002806
490 2 -49.538514 26.115844 -16.064619
491 1 -50.580434 23.912612 -15.020741
492 2 -49.492891 25.554495 -12.843342
493 2 -49.294547 25.836323 -10.530390
494 2 -46.140367 -21.842004 -7.350508
495 2 -46.470692 -22.530064 -4.457014
496 2 -46.401151 -22.687112 -1.612209
497 2 -46.406691 -22.478301 1.587741
498 2 -45.961008 -22.377482 4.908936
499 2 -46.168427 -19.456201 -16.353991
500 2 -46.659628 -19.289973 -13.505409
501 2 -46.593172 -19.095209 -10.791586
502 2 -45.881986 -18.993313 -7.441921
503 1 -47.369550 -21.263088 -5.567697
504 2 -46.395222 -20.032380 -4.550165
505 1 -47.960400 -20.760382 -2.996255
506 2 -46.482641 -19.324646 -1.197754
507 1 -47.935443 -21.086560 0.445786
508 2 -46.493290 -19.846352 1.551173
509 2 -46.235422 -19.532763 4.533502
510 2 -46.778611 -19.531149 7.768801
511 2 -46.704014 -19.544822 10.385276
512 2 -46.439114 -15.952515 -22.398143
513 2 -46.877132 -16.372916 -19.039403
514 2 -46.817580 -16.787968 -16.342023
515 1 -47.934053 -17.615085 -14.966877
516 2 -46.151415 -16.012029 -13.666493
517 1 -47.682364 -18.101112 -12.565308
518 2 -46.256660 -16.292021 -10.857012
519 1 -48.044647 -18.168088 -8.638204
520 2 -46.867369 -16.440564 -8.080332
521 1 -47.793365 -17.942526 -6.021470
522 2 -45.969656 -17.263632 -4.365389
523 1 -47.546711 -17.941416 -2.440546
524 2 -46.536135 -16.523151 -0.973088
525 1 -47.638079 -17.256877 0.193584
526 2 -46.339913 -16.611864 1.608563
527 1 -47.582751 -17.980332 2.934187
528 2 -46.513667 -16.499986 4.461218
529 1 -48.045862 -18.281690 6.065170
530 2 -46.048675 -16.458163 8.442173
531 2 -46.630593 -16.326376 10.782080
532 2 -46.204180 -13.640482 -25.576007
533 2 -46.277500 -13.609910 -22.984616
534 1 -47.512686 -14.697492 -21.068182
535 2 -46.334465 -13.154193 -19.029632
536 1 -47.876353 -15.141738 -17.485938
537 2 -46.371730 -13.502132 -16.340556
538 1 -47.559637 -14.976950 -14.615136
539 2 -46.463163 -13.274122 -13.690764
540 1 -47.585300 -15.169079 -11.758940
541 2 -46.848488 -13.450271 -10.333196
542 1 -48.113207 -14.998349 -8.803391
543 2 -46.230462 -13.427559 -6.973183
544 1 -47.558571 -14.974484 -6.268510
545 2 -46.547141 -14.129834 -4.415129
546 1 -47.485159 -14.726763 -2.827236
547 2 -46.619618 -13.420877 -0.702350
548 1 -47.459246 -15.010566 -0.284222
549 2 -45.734546 -13.677497 1.829903
550 1 -48.377741 -15.062662 2.706406
551 2 -46.750596 -13.736554 4.828902
552 1 -47.936759 -14.147506 6.534425
553 2 -46.051907 -13.305896 7.783315
554 1 -47.549287 -15.683190 9.019988
555 2 -46.810476 -14.025865 10.483324
556 2 -46.746345 -13.097702 13.757712
557 2 -47.006292 -10.348069 -28.785091
558 1 -47.889005 -11.831545 -27.198685
559 2 -46.334753 -10.321527 -25.514443
560 1 -48.124754 -11.949305 -23.999470
561 2 -46.304856 -10.522280 -22.809309
562 1 -47.958744 -11.851759 -20.886597
563 2 -46.433732 -10.589466 -19.597225
564 1 -48.038802 -11.625790 -18.213192
565 2 -46.372854 -10.822039 -16.189348
566 1 -48.069431 -12.199175 -14.847457
567 2 -47.142203 -10.834545 -13.296101
568 1 -47.601884 -11.814295 -11.855376
569 2 -45.673557 -10.294595 -10.704836
570 1 -47.598852 -12.143524 -9.095949
571 2 -46.816639 -10.566794 -7.745608
572 1 -47.739724 -11.988065 -6.277743
573 2 -46.424722 -10.143112 -3.870803
574 1 -48.447356 -12.184923 -3.241154
575 2 -46.293692 -10.867539 -1.025556
576 1 -47.544874 -11.703589 -0.053677
577 2 -46.597565 -10.580431 2.003265
578 1 -48.419744 -11.833836 2.896150
579 2 -46.526743 -10.220805 4.228178
580 1 -47.991526 -11.989097 6.181311
581 2 -46.431396 -10.274920 7.563810
582 1 -47.797629 -11.850806 9.293835
583 2 -46.241144 -10.357705 10.688049
584 2 -46.782875 -10.033560 14.241015
585 2 -46.508649 -7.290145 -31.660020
586 1 -48.124934 -8.918574 -29.140967
587 2 -45.919290 -6.991924 -28.323505
588 1 -48.184421 -8.622652 -27.829340
589 2 -46.282439 -7.096742 -25.419242
590 1 -47.407487 -9.365157 -23.474805
591 2 -46.447837 -6.990341 -22.142326
592 1 -47.451295 -8.641149 -20.733797
593 2 -45.988389 -7.411025 -19.253309
594 1 -47.908878 -9.142031 -17.768541
595 2 -46.340969 -7.048774 -16.477880
596 1 -48.137136 -8.560485 -14.893318
597 2 -46.638843 -7.008955 -13.125497
598 1 -47.350364 -9.038038 -12.042381
599 2 -46.727889 -7.598674 -10.506402
600 1 -47.701862 -9.215457 -9.082411
601 2 -45.888745 -8.311428 -7.230116
602 1 -48.296848 -9.178036 -5.438271
603 2 -46.378707 -6.626644 -4.170931
604 1 -48.157934 -8.767094 -2.511728
605 2 -46.242925 -7.492684 -1.854769
606 1 -48.005005 -8.432466 -0.077625
607 2 -46.524451 -7.128276 1.856925
608 1 -48.302722 -8.968000 3.601786
609 2 -46.392304 -6.996236 5.133650
610 1 -48.187477 -9.024208 6.390853
611 2 -46.863900 -7.495002 7.864760
612 1 -48.095396 -8.757938 9.026633
613 2 -46.584580 -7.203380 11.127551
614 2 -46.614577 -7.792977 13.718852
615 2 -46.259517 -4.630051 -34.009217
616 2 -46.444560 -4.632657 -30.912507
617 1 -47.525925 -6.139572 -29.665672
618 2 -46.598024 -4.181328 -27.944052
619 1 -48.272252 -6.082390 -27.127938
620 2 -46.320206 -4.270042 -25.491779
621 1 -48.414862 -6.291402 -24.223805
622 2 -46.231479 -4.833378 -22.725390
623 1 -48.249581 -5.817349 -20.601195
624 2 -46.353810 -3.811711 -19.388499
625 1 -47.936172 -6.156680 -17.866214
626 2 -46.649560 -4.707914 -16.723695
627 1 -47.975392 -6.071033 -14.112013
628 2 -46.337159 -4.354587 -13.571330
629 1 -46.983547 -6.198822 -12.040238
630 2 -46.099025 -4.351743 -10.773735
631 1 -47.899559 -5.715327 -8.728041
632 2 -46.200940 -3.753764 -7.293049
633 1 -47.667901 -6.651142 -5.304947
634 2 -46.380690 -4.674456 -4.418776
635 1 -47.708037 -5.608276 -2.881132
636 2 -46.218953 -4.492112 -1.196689
637 1 -47.845596 -5.829553 0.068829
638 2 -46.278584 -4.661956 1.728763
639 1 -48.099079 -6.219842 2.964858
640 2 -46.463007 -4.572087 4.804565
641 1 -47.883760 -5.614362 6.167120
642 2 -46.345810 -3.850177 7.567776
643 1 -47.993761 -5.557400 8.919102
644 2 -46.003702 -4.484177 10.463845
645 2 -46.127365 -1.473467 -33.959892
646 1 -47.883318 -2.882976 -33.179125
647 2 -46.444537 -1.479954 -31.093503
648 1 -47.820472 -2.692529 -29.957718
649 2 -46.524189 -1.285898 -28.000305
650 1 -48.223878 -2.778779 -26.521196
651 2 -46.645941 -1.119766 -25.186579
652 1 -48.298013 -2.570456 -24.136541
653 2 -46.292094 -1.088974 -22.088090
654 1 -48.370846 -2.365989 -20.514910
655 2 -46.083129 -1.288767 -19.566278
656 1 -48.234367 -3.394840 -17.733087
657 2 -46.083281 -1.423266 -16.558899
658 1 -47.886709 -3.098329 -14.905900
659 2 -46.610664 -1.213222 -13.029888
660 1 -47.754473 -2.929513 -11.599192
661 2 -46.394587 -1.109112 -10.581712
662 1 -48.060569 -3.203380 -9.022756
663 2 -46.104396 -1.660584 -8.069740
664 1 -48.032764 -3.259132 -6.019495
665 2 -45.765066 -1.665776 -4.168904
666 1 -47.931972 -2.792949 -3.005957
667 2 -46.050141 -1.269058 -1.207842
668 1 -47.877971 -2.526580 0.331471
669 2 -46.288460 -1.200980 1.139452
670 1 -47.851178 -2.924555 3.529913
671 2 -46.611648 -1.337119 5.265123
672 1 -47.915540 -3.306330 6.848028
673 2 -46.616025 -1.711245 7.398476
674 1 -47.688397 -2.513972 9.738347
675 2 -46.395668 -1.695295 10.543247
676 2 -46.390162 1.610861 -37.130463
677 1 -48.305048 -0.226568 -36.110823
678 2 -46.288972 1.483787 -34.667926
679 1 -47.553903 0.252042 -33.299309
680 2 -46.553964 1.773068 -31.875113
681 1 -47.753801 0.006093 -29.878028
682 2 -46.364148 1.280365 -28.671856
683 1 -47.471396 0.824701 -27.499208
684 2 -46.085786 1.706376 -24.837106
685 1 -48.076179 0.380580 -24.048662
686 2 -46.013944 2.314101 -22.385676
687 1 -48.251185 0.536030 -20.771922
688 2 -46.286310 2.094594 -19.777912
689 1 -48.123716 0.288919 -18.150066
690 2 -46.495564 2.001590 -16.289379
691 1 -48.263204 0.232771 -14.538834
692 2 -46.348569 1.880095 -13.560793
693 1 -47.829434 -0.365647 -11.707551
694 2 -46.291708 1.228233 -9.931370
695 1 -47.735590 -0.099094 -8.684592
696 2 -46.697095 1.362137 -7.670153
697 1 -48.211730 0.241688 -5.838916
698 2 -46.174699 0.767113 -4.477964
699 1 -48.021575 0.125617 -2.844343
700 2 -46.331520 1.644025 -1.483242
701 1 -48.028251 0.093823 0.314735
702 2 -46.374630 1.380515 1.417390
703 1 -47.754054 0.338102 3.500496
704 2 -46.548302 1.051126 4.800151
705 1 -48.123550 0.078582 6.237276
706 2 -46.233362 1.886547 8.052730
707 1 -47.510013 0.141118 8.698459
708 2 -46.584064 2.041798 10.759936
709 2 -45.743507 4.517984 -36.827587
710 1 -47.908242 2.998192 -36.231982
711 2 -46.201341 4.206212 -34.675666
712 1 -47.923641 2.444010 -33.031792
713 2 -45.881558 4.762482 -31.693316
714 1 -48.051867 3.226397 -30.141405
715 2 -46.259017 4.469747 -28.788739
716 1 -47.551778 3.338523 -27.541776
717 2 -46.501850 4.946694 -25.515006
718 1 -48.082823 3.048606 -23.923973
719 2 -46.454448 4.607321 -22.495122
720 1 -48.201333 2.815662 -21.271037
721 2 -46.372700 4.807952 -19.718718
722 1 -48.360073 2.862045 -17.504590
723 2 -46.494690 4.567701 -16.660425
724 1 -47.735418 3.087562 -15.131497
725 2 -46.711107 4.746169 -13.325323
726 1 -48.281129 3.494804 -12.090944
727 2 -47.071051 5.093131 -10.420831
728 1 -47.776794 3.628942 -9.184705
729 2 -46.255768 4.986609 -7.656670
730 1 -47.467399 2.699886 -5.896167
731 2 -46.724501 4.842044 -4.650981
732 1 -48.093906 2.859740 -3.214799
733 2 -46.631527 4.618580 -1.375130
734 1 -47.973054 2.923785 0.055241
735 2 -46.878342 4.421503 1.603224
736 1 -47.819039 3.176685 2.807349
737 2 -46.271310 4.669106 5.119295
738 1 -48.358349 3.083600 6.503524
739 2 -46.489660 4.356841 7.454043
740 1 -47.671173 2.657999 9.107116
741 2 -46.664422 4.390766 10.848228
742 2 -46.519468 7.717508 -37.899380
743 1 -47.657573 6.203869 -35.644155
744 2 -46.522983 7.782791 -34.273721
745 1 -47.778174 6.651631 -33.503875
746 2 -46.347630 7.524883 -31.638938
747 1 -47.457487 5.952754 -29.730288
748 2 -46.718094 7.954631 -28.486684
749 1 -47.993040 5.676416 -27.057041
750 2 -46.607344 8.174168 -25.449338
751 1 -48.087631 5.947136 -24.367423
752 2 -45.941320 8.026016 -22.470091
753 1 -47.250715 6.135798 -20.611840
754 2 -46.229590 7.474037 -19.379934
755 1 -47.795411 5.746511 -17.840590
756 2 -46.056293 7.438751 -16.483357
757 1 -48.242333 5.994184 -15.034584
758 2 -45.924471 7.551615 -13.564807
759 1 -47.936115 5.624880 -12.608567
760 2 -46.816995 7.744965 -10.390722
761 1 -47.645752 5.681356 -8.943940
762 2 -46.880222 7.727845 -7.790351
763 1 -47.981163 6.201976 -5.985361
764 2 -47.082265 8.148441 -4.509874
765 1 -48.393054 6.369248 -2.611646
766 2 -46.491395 8.110427 -1.568235
767 1 -47.854829 6.293754 0.619056
768 2 -46.986195 8.338227 2.024008
769 1 -47.772276 5.898653 2.911159
770 2 -46.313506 7.796128 4.795093
771 1 -47.859622 6.269985 5.533620
772 2 -46.480518 7.230203 7.687863
773 2 -46.006388 10.388279 -37.738766
774 1 -48.163917 8.938902 -35.850368
775 2 -46.162947 11.105212 -34.812961
776 1 -47.701580 9.411134 -32.503946
777 2 -46.680829 10.058168 -31.578547
778 1 -47.060968 8.824526 -29.840607
779 2 -47.068571 11.209422 -29.046194
780 1 -48.628713 9.184557 -26.936726
781 2 -45.972372 10.918360 -26.068089
782 1 -47.953576 8.944575 -24.359933
783 2 -46.269535 10.976707 -22.692712
784 1 -48.008142 9.074493 -21.141732
785 2 -46.529144 10.462737 -19.397338
786 1 -48.084600 9.283516 -18.105333
787 2 -46.205295 10.477825 -16.237285
788 1 -48.163638 9.421685 -15.448489
789 2 -46.402050 10.491252 -13.418839
790 1 -48.265363 9.096077 -12.231885
791 2 -46.472096 10.562405 -10.290443
792 1 -47.887946 9.721056 -9.036160
793 2 -46.440275 11.622316 -7.442316
794 1 -47.620391 9.328578 -5.163479
795 2 -46.831627 10.196557 -4.696956
796 1 -47.855694 8.852222 -3.495648
797 2 -46.678981 10.773376 -1.617349
798 1 -47.563350 8.815444 0.166849
799 2 -46.518151 10.719075 1.757175
800 1 -47.429851 9.362736 3.050724