LAMMPS (2 Aug 2023 - Update 3)
  using 1 OpenMP thread(s) per MPI task
  using 1 OpenMP thread(s) per MPI task
Reading data file ...
  orthogonal box = (-14.250984 -14.250984 -14.250984) to (14.250984 14.250984 14.250984)
  1 by 1 by 2 MPI processor grid
  reading atoms ...
  318 atoms
  read_data CPU = 0.019 seconds
WARNING: No fixes with time integration, atoms won't move (src/verlet.cpp:60)
Neighbor list info ...
  update: every = 1 steps, delay = 5 steps, check = yes
  max neighbors/atom: 2000, page size: 100000
  master list distance cutoff = 7
  ghost atom cutoff = 7
  binsize = 3.5, bins = 7 6 7
  2 neighbor lists, perpetual/occasional/extra = 2 0 0
  (1) pair meam, perpetual
      attributes: full, newton on
      pair build: full/bin/atomonly
      stencil: full/bin/3d
      bin: standard
  (2) pair meam, perpetual, half/full from (1)
      attributes: half, newton on
      pair build: halffull/newton
      stencil: none
      bin: none
Setting up Verlet run ...
  Unit style    : metal
  Current step  : 0
  Time step     : 0.001
Per MPI rank memory allocation (min/avg/max) = 8.752 | 8.785 | 8.819 Mbytes
   Step          Temp          PotEng         KinEng         TotEng         Press          Volume           Lx             Ly             Lz      
         0   0             -716.64541      0             -716.64541      369924.29      8538.2151      21.535744      18.546588      21.376823    
Loop time of 3.204e-06 on 2 procs for 0 steps with 318 atoms

140.4% CPU use with 2 MPI tasks x 1 OpenMP threads

MPI task timing breakdown:
Section |  min time  |  avg time  |  max time  |%varavg| %total
---------------------------------------------------------------
Pair    | 0          | 0          | 0          |   0.0 |  0.00
Neigh   | 0          | 0          | 0          |   0.0 |  0.00
Comm    | 0          | 0          | 0          |   0.0 |  0.00
Output  | 0          | 0          | 0          |   0.0 |  0.00
Modify  | 0          | 0          | 0          |   0.0 |  0.00
Other   |            | 3.204e-06  |            |       |100.00

Nlocal:            159 ave         174 max         144 min
Histogram: 1 0 0 0 0 0 0 0 0 1
Nghost:            134 ave         151 max         117 min
Histogram: 1 0 0 0 0 0 0 0 0 1
Neighs:           4976 ave        6439 max        3513 min
Histogram: 1 0 0 0 0 0 0 0 0 1
FullNghs:         9952 ave       10787 max        9117 min
Histogram: 1 0 0 0 0 0 0 0 0 1

Total # of neighbors = 19904
Ave neighs/atom = 62.591195
Neighbor list builds = 0
Dangerous builds = 0
Switching to 'neigh_modify every 1 delay 0 check yes' setting during minimization
Setting up cg style minimization ...
  Unit style    : metal
  Current step  : 0
Per MPI rank memory allocation (min/avg/max) = 10.86 | 10.89 | 10.93 Mbytes
   Step          Temp          PotEng         KinEng         TotEng         Press          Volume           Lx             Ly             Lz      
         0   0             -716.64541      0             -716.64541      369924.29      8538.2151      21.535744      18.546588      21.376823    
       100   0             -1476.812       0             -1476.812      -99.895984      7516.4704      20.493054      18.226233      20.123816    
       134   0             -1476.9032      0             -1476.9032     -5.0328511      7516.4704      20.493054      18.226233      20.123816    
Loop time of 1.58688 on 2 procs for 134 steps with 318 atoms

103.7% CPU use with 2 MPI tasks x 1 OpenMP threads

Minimization stats:
  Stopping criterion = energy tolerance
  Energy initial, next-to-last, final = 
     -716.645407612718   -1476.9031576212  -1476.90317219509
  Force two-norm initial, final = 626.37762 0.14593418
  Force max component initial, final = 223.08648 0.072118209
  Final line search alpha, max atom move = 0.89647835 0.064652413
  Iterations, force evaluations = 134 252

MPI task timing breakdown:
Section |  min time  |  avg time  |  max time  |%varavg| %total
---------------------------------------------------------------
Pair    | 1.2745     | 1.4195     | 1.5644     |  12.2 | 89.45
Neigh   | 0.0008599  | 0.00098169 | 0.0011035  |   0.0 |  0.06
Comm    | 0.014287   | 0.15931    | 0.30433    |  36.3 | 10.04
Output  | 4.3415e-05 | 7.9372e-05 | 0.00011533 |   0.0 |  0.01
Modify  | 0          | 0          | 0          |   0.0 |  0.00
Other   |            | 0.007051   |            |       |  0.44

Nlocal:            159 ave         162 max         156 min
Histogram: 1 0 0 0 0 0 0 0 0 1
Nghost:          132.5 ave         141 max         124 min
Histogram: 1 0 0 0 0 0 0 0 0 1
Neighs:         5196.5 ave        6349 max        4044 min
Histogram: 1 0 0 0 0 0 0 0 0 1
FullNghs:        10393 ave       10437 max       10349 min
Histogram: 1 0 0 0 0 0 0 0 0 1

Total # of neighbors = 20786
Ave neighs/atom = 65.36478
Neighbor list builds = 2
Dangerous builds = 0
System init for write_data ...
System init for write_restart ...
WARNING: No fixes with time integration, atoms won't move (src/verlet.cpp:60)
Setting up Verlet run ...
  Unit style    : metal
  Current step  : 134
  Time step     : 0.001
Per MPI rank memory allocation (min/avg/max) = 9.766 | 9.799 | 9.832 Mbytes
   Step          Temp          PotEng         KinEng         TotEng         Press          Volume           Lx             Ly             Lz      
       134   0             -1476.9032      0             -1476.9032     -5.0595346      7476.8292      20.504311      18.16589       20.073153    
Loop time of 8.511e-06 on 2 procs for 0 steps with 318 atoms

164.5% CPU use with 2 MPI tasks x 1 OpenMP threads

MPI task timing breakdown:
Section |  min time  |  avg time  |  max time  |%varavg| %total
---------------------------------------------------------------
Pair    | 0          | 0          | 0          |   0.0 |  0.00
Neigh   | 0          | 0          | 0          |   0.0 |  0.00
Comm    | 0          | 0          | 0          |   0.0 |  0.00
Output  | 0          | 0          | 0          |   0.0 |  0.00
Modify  | 0          | 0          | 0          |   0.0 |  0.00
Other   |            | 8.511e-06  |            |       |100.00

Nlocal:            159 ave         159 max         159 min
Histogram: 2 0 0 0 0 0 0 0 0 0
Nghost:          132.5 ave         138 max         127 min
Histogram: 1 0 0 0 0 0 0 0 0 1
Neighs:         5196.5 ave        6256 max        4137 min
Histogram: 1 0 0 0 0 0 0 0 0 1
FullNghs:        10393 ave       10538 max       10248 min
Histogram: 1 0 0 0 0 0 0 0 0 1

Total # of neighbors = 20786
Ave neighs/atom = 65.36478
Neighbor list builds = 0
Dangerous builds = 0
==========================================
MINIMIZATION COMPLETE
==========================================
Final PE:       -1476.90317219509 eV
Final Pressure: -5.05953458321288 bar
WARNING: Detected non-ASCII characters in input. Will try to continue by replacing with ASCII equivalents where known. (src/input.cpp:463)
Box size:       20.5043111814614 — 18.1658903751287 — 20.0731526727917 …
==========================================
Total wall time: 0:00:01
