LAMMPS (2 Aug 2023 - Update 3)
  using 1 OpenMP thread(s) per MPI task
  using 1 OpenMP thread(s) per MPI task
Reading data file ...
  orthogonal box = (-10.020352 -8.9727131 -10.136973) to (10.483959 9.1931772 9.9361793)
  2 by 1 by 1 MPI processor grid
  reading atoms ...
  318 atoms
  reading velocities ...
  318 velocities
  read_data CPU = 0.037 seconds
==========================================
Equilibrating at 300 K...
==========================================
Neighbor list info ...
  update: every = 1 steps, delay = 0 steps, check = yes
  max neighbors/atom: 2000, page size: 100000
  master list distance cutoff = 7
  ghost atom cutoff = 7
  binsize = 3.5, bins = 6 6 6
  4 neighbor lists, perpetual/occasional/extra = 2 2 0
  (1) pair meam, perpetual
      attributes: full, newton on
      pair build: full/bin/atomonly
      stencil: full/bin/3d
      bin: standard
  (2) pair meam, perpetual, half/full from (1)
      attributes: half, newton on
      pair build: halffull/newton
      stencil: none
      bin: none
  (3) compute centro/atom, occasional, copy from (1)
      attributes: full, newton on
      pair build: copy
      stencil: none
      bin: none
  (4) compute cna/atom, occasional, copy from (1)
      attributes: full, newton on
      pair build: copy
      stencil: none
      bin: none
Setting up Verlet run ...
  Unit style    : metal
  Current step  : 0
  Time step     : 0.1
Per MPI rank memory allocation (min/avg/max) = 8.777 | 8.785 | 8.794 Mbytes
   Step          Temp          PotEng         KinEng         TotEng         Press          Volume           Lx             Ly             Lz            Pxx            Pyy            Pzz      
         0   300           -1476.9032      12.29264      -1464.6105      1751.5136      7474.7674      20.502712      18.163823      20.071467      1987.2344      1449.041       1818.2653    
ERROR on proc 0: Too many neighbor bins (src/nbin_standard.cpp:213)
Last command: run ${equil_steps}
ERROR on proc 1: Too many neighbor bins (src/nbin_standard.cpp:213)
Last command: run ${equil_steps}
--------------------------------------------------------------------------
MPI_ABORT was invoked on rank 1 in communicator MPI_COMM_WORLD
with errorcode 1.

NOTE: invoking MPI_ABORT causes Open MPI to kill all MPI processes.
You may or may not see output from other processes, depending on
exactly when Open MPI kills them.
--------------------------------------------------------------------------
[9e1b4edf3cbd:82201] 1 more process has sent help message help-mpi-api.txt / mpi-abort
[9e1b4edf3cbd:82201] Set MCA parameter "orte_base_help_aggregate" to 0 to see all help / error messages
