LAMMPS (2 Aug 2023 - Update 3)
  using 1 OpenMP thread(s) per MPI task
  using 1 OpenMP thread(s) per MPI task
Reading data file ...
  orthogonal box = (-10.020352 -8.9727131 -10.136973) to (10.483959 9.1931772 9.9361793)
  2 by 1 by 1 MPI processor grid
  reading atoms ...
  318 atoms
  reading velocities ...
  318 velocities
  read_data CPU = 0.032 seconds
=== Equilibrating at 400 K (Austenite) ===
Neighbor list info ...
  update: every = 1 steps, delay = 0 steps, check = yes
  max neighbors/atom: 2000, page size: 100000
  master list distance cutoff = 7
  ghost atom cutoff = 7
  binsize = 3.5, bins = 6 6 6
  4 neighbor lists, perpetual/occasional/extra = 2 2 0
  (1) pair meam, perpetual
      attributes: full, newton on
      pair build: full/bin/atomonly
      stencil: full/bin/3d
      bin: standard
  (2) pair meam, perpetual, half/full from (1)
      attributes: half, newton on
      pair build: halffull/newton
      stencil: none
      bin: none
  (3) compute centro/atom, occasional, copy from (1)
      attributes: full, newton on
      pair build: copy
      stencil: none
      bin: none
  (4) compute cna/atom, occasional, copy from (1)
      attributes: full, newton on
      pair build: copy
      stencil: none
      bin: none
Setting up Verlet run ...
  Unit style    : metal
  Current step  : 0
  Time step     : 0.001
Per MPI rank memory allocation (min/avg/max) = 8.777 | 8.785 | 8.794 Mbytes
   Step          Temp          PotEng         KinEng         TotEng         Press          Volume           Lx             Ly             Lz          Density          Pxx            Pyy            Pzz      
         0   400           -1476.9032      16.390186     -1460.513       2337.0384      7474.7674      20.502712      18.163823      20.071467      3.7644135      2552.1943      2013.1111      2445.8097    
       100   206.01524     -1467.442       8.4415704     -1459.0004     -6407.3854      7474.7674      20.502712      18.163823      20.071467      3.7644135     -5274.6254     -7524.6354     -6422.8955    
Loop time of 0.586587 on 2 procs for 100 steps with 318 atoms

Performance: 14.729 ns/day, 1.629 hours/ns, 170.478 timesteps/s, 54.212 katom-step/s
103.8% CPU use with 2 MPI tasks x 1 OpenMP threads

MPI task timing breakdown:
Section |  min time  |  avg time  |  max time  |%varavg| %total
---------------------------------------------------------------
Pair    | 0.54772    | 0.55863    | 0.56955    |   1.5 | 95.23
Neigh   | 0          | 0          | 0          |   0.0 |  0.00
Comm    | 0.012604   | 0.023489   | 0.034373   |   7.1 |  4.00
Output  | 6.857e-05  | 0.00038326 | 0.00069795 |   0.0 |  0.07
Modify  | 0.002711   | 0.0030427  | 0.0033744  |   0.6 |  0.52
Other   |            | 0.001041   |            |       |  0.18

Nlocal:            159 ave         169 max         149 min
Histogram: 1 0 0 0 0 0 0 0 0 1
Nghost:            130 ave         139 max         121 min
Histogram: 1 0 0 0 0 0 0 0 0 1
Neighs:         5196.5 ave        5555 max        4838 min
Histogram: 1 0 0 0 0 0 0 0 0 1
FullNghs:        10393 ave       11128 max        9658 min
Histogram: 1 0 0 0 0 0 0 0 0 1

Total # of neighbors = 20786
Ave neighs/atom = 65.36478
Neighbor list builds = 0
Dangerous builds = 0
System init for write_restart ...
=== Cycle 1: Cooling 400 -> 50 K (A -> M) ===
Setting up Verlet run ...
  Unit style    : metal
  Current step  : 100
  Time step     : 0.001
Per MPI rank memory allocation (min/avg/max) = 13.16 | 13.17 | 13.18 Mbytes
   Step          Temp          PotEng         KinEng         TotEng         Press          Volume           Lx             Ly             Lz          Density          Pxx            Pyy            Pzz      
       100   206.01524     -1467.442       8.4415704     -1459.0004     -6141.2895      7798.6416      20.807691      18.367453      20.405448      3.608079      -5055.5724     -7212.1406     -6156.1554    
       450   193.77828     -1469.0465      7.9401553     -1461.1064     -2469.3243      7798.6416      20.807691      18.367453      20.405448      3.608079      -1219.8138     -3987.7854     -2200.3738    
Loop time of 1.73338 on 2 procs for 350 steps with 318 atoms

Performance: 17.446 ns/day, 1.376 hours/ns, 201.917 timesteps/s, 64.210 katom-step/s
103.1% CPU use with 2 MPI tasks x 1 OpenMP threads

MPI task timing breakdown:
Section |  min time  |  avg time  |  max time  |%varavg| %total
---------------------------------------------------------------
Pair    | 1.6641     | 1.667      | 1.6698     |   0.2 | 96.17
Neigh   | 0          | 0          | 0          |   0.0 |  0.00
Comm    | 0.051069   | 0.053593   | 0.056116   |   1.1 |  3.09
Output  | 9.1714e-05 | 0.00011366 | 0.00013561 |   0.0 |  0.01
Modify  | 0.0082226  | 0.0087788  | 0.0093351  |   0.6 |  0.51
Other   |            | 0.003938   |            |       |  0.23

Nlocal:            159 ave         166 max         152 min
Histogram: 1 0 0 0 0 0 0 0 0 1
Nghost:            131 ave         138 max         124 min
Histogram: 1 0 0 0 0 0 0 0 0 1
Neighs:           5111 ave        5359 max        4863 min
Histogram: 1 0 0 0 0 0 0 0 0 1
FullNghs:        10222 ave       10752 max        9692 min
Histogram: 1 0 0 0 0 0 0 0 0 1

Total # of neighbors = 20444
Ave neighs/atom = 64.289308
Neighbor list builds = 0
Dangerous builds = 0
=== Cycle 1: Equilibrating at 50 K (Martensite) ===
Setting up Verlet run ...
  Unit style    : metal
  Current step  : 450
  Time step     : 0.001
Per MPI rank memory allocation (min/avg/max) = 13.16 | 13.17 | 13.18 Mbytes
   Step          Temp          PotEng         KinEng         TotEng         Press          Volume           Lx             Ly             Lz          Density          Pxx            Pyy            Pzz      
       450   193.77828     -1469.0465      7.9401553     -1461.1064     -2527.6443      7618.7046      20.791976      18.019064      20.33542       3.6932939     -1248.6231     -4081.9681     -2252.3418    
       550   133.1534      -1470.8086      5.4560225     -1465.3526     -5122.6138      7618.7046      20.791976      18.019064      20.33542       3.6932939     -4911.2758     -5497.5105     -4959.0551    
Loop time of 0.496693 on 2 procs for 100 steps with 318 atoms

Performance: 17.395 ns/day, 1.380 hours/ns, 201.331 timesteps/s, 64.023 katom-step/s
104.5% CPU use with 2 MPI tasks x 1 OpenMP threads

MPI task timing breakdown:
Section |  min time  |  avg time  |  max time  |%varavg| %total
---------------------------------------------------------------
Pair    | 0.47927    | 0.48004    | 0.48081    |   0.1 | 96.65
Neigh   | 0          | 0          | 0          |   0.0 |  0.00
Comm    | 0.01168    | 0.012428   | 0.013177   |   0.7 |  2.50
Output  | 0.0001031  | 0.00017597 | 0.00024884 |   0.0 |  0.04
Modify  | 0.002396   | 0.0027583  | 0.0031207  |   0.7 |  0.56
Other   |            | 0.001287   |            |       |  0.26

Nlocal:            159 ave         164 max         154 min
Histogram: 1 0 0 0 0 0 0 0 0 1
Nghost:            130 ave         134 max         126 min
Histogram: 1 0 0 0 0 0 0 0 0 1
Neighs:         5131.5 ave        5262 max        5001 min
Histogram: 1 0 0 0 0 0 0 0 0 1
FullNghs:        10263 ave       10522 max       10004 min
Histogram: 1 0 0 0 0 0 0 0 0 1

Total # of neighbors = 20526
Ave neighs/atom = 64.54717
Neighbor list builds = 0
Dangerous builds = 0
System init for write_restart ...
=== Cycle 1: Heating 50 -> 400 K (M -> A) ===
Setting up Verlet run ...
  Unit style    : metal
  Current step  : 550
  Time step     : 0.001
Per MPI rank memory allocation (min/avg/max) = 13.17 | 13.17 | 13.18 Mbytes
   Step          Temp          PotEng         KinEng         TotEng         Press          Volume           Lx             Ly             Lz          Density          Pxx            Pyy            Pzz      
       550   133.1534      -1470.8086      5.4560225     -1465.3526     -5150.2523      7577.8193      20.877353      17.961879      20.207707      3.7132207     -4937.7741     -5527.1717     -4985.8111    
       900   170.81119     -1469.1975      6.9990679     -1462.1984     -4390.8648      7577.8193      20.877353      17.961879      20.207707      3.7132207     -4664.3425     -4193.9102     -4314.3416    
Loop time of 1.7021 on 2 procs for 350 steps with 318 atoms

Performance: 17.766 ns/day, 1.351 hours/ns, 205.629 timesteps/s, 65.390 katom-step/s
103.5% CPU use with 2 MPI tasks x 1 OpenMP threads

MPI task timing breakdown:
Section |  min time  |  avg time  |  max time  |%varavg| %total
---------------------------------------------------------------
Pair    | 1.5791     | 1.6274     | 1.6757     |   3.8 | 95.61
Neigh   | 0          | 0          | 0          |   0.0 |  0.00
Comm    | 0.015654   | 0.064009   | 0.11236    |  19.1 |  3.76
Output  | 6.5871e-05 | 0.00023786 | 0.00040986 |   0.0 |  0.01
Modify  | 0.006278   | 0.0071976  | 0.0081171  |   1.1 |  0.42
Other   |            | 0.003288   |            |       |  0.19

Nlocal:            159 ave         163 max         155 min
Histogram: 1 0 0 0 0 0 0 0 0 1
Nghost:          130.5 ave         135 max         126 min
Histogram: 1 0 0 0 0 0 0 0 0 1
Neighs:         5117.5 ave        5351 max        4884 min
Histogram: 1 0 0 0 0 0 0 0 0 1
FullNghs:        10235 ave       10617 max        9853 min
Histogram: 1 0 0 0 0 0 0 0 0 1

Total # of neighbors = 20470
Ave neighs/atom = 64.371069
Neighbor list builds = 0
Dangerous builds = 0
=== Cycle 1: Equilibrating at 400 K (Austenite) ===
Setting up Verlet run ...
  Unit style    : metal
  Current step  : 900
  Time step     : 0.001
Per MPI rank memory allocation (min/avg/max) = 13.17 | 13.17 | 13.18 Mbytes
   Step          Temp          PotEng         KinEng         TotEng         Press          Volume           Lx             Ly             Lz          Density          Pxx            Pyy            Pzz      
       900   170.81119     -1469.1975      6.9990679     -1462.1984     -4370.855       7612.5106      21.028326      17.916148      20.205917      3.696299      -4643.0865     -4174.798      -4294.6806    
      1000   201.72131     -1468.5828      8.2656245     -1460.3172      151.76419      7612.5106      21.028326      17.916148      20.205917      3.696299      -53.480791      152.32833      356.44504    
Loop time of 0.403648 on 2 procs for 100 steps with 318 atoms

Performance: 21.405 ns/day, 1.121 hours/ns, 247.741 timesteps/s, 78.781 katom-step/s
103.5% CPU use with 2 MPI tasks x 1 OpenMP threads

MPI task timing breakdown:
Section |  min time  |  avg time  |  max time  |%varavg| %total
---------------------------------------------------------------
Pair    | 0.3933     | 0.3952     | 0.3971     |   0.3 | 97.91
Neigh   | 0          | 0          | 0          |   0.0 |  0.00
Comm    | 0.0042467  | 0.0061001  | 0.0079534  |   2.4 |  1.51
Output  | 5.9849e-05 | 0.00019719 | 0.00033452 |   0.0 |  0.05
Modify  | 0.0014932  | 0.0016181  | 0.0017431  |   0.3 |  0.40
Other   |            | 0.0005358  |            |       |  0.13

Nlocal:            159 ave         165 max         153 min
Histogram: 1 0 0 0 0 0 0 0 0 1
Nghost:            130 ave         135 max         125 min
Histogram: 1 0 0 0 0 0 0 0 0 1
Neighs:           5139 ave        5327 max        4951 min
Histogram: 1 0 0 0 0 0 0 0 0 1
FullNghs:        10278 ave       10687 max        9869 min
Histogram: 1 0 0 0 0 0 0 0 0 1

Total # of neighbors = 20556
Ave neighs/atom = 64.641509
Neighbor list builds = 0
Dangerous builds = 0
System init for write_restart ...
System init for write_data ...
==========================================
THERMAL CYCLING COMPLETE
==========================================
Analyze thermo_detailed.txt for hysteresis (e.g., plot PE vs Temp)
==========================================
Total wall time: 0:00:05
