ITEM: TIMESTEP
0
ITEM: NUMBER OF ATOMS
318
ITEM: BOX BOUNDS ss ss ss
-1.0019552331946517e+01 1.0483159318151134e+01
-8.9716795401554013e+00 9.1921436194483501e+00
-1.0136130453224718e+01 9.9353364565015259e+00
ITEM: ATOMS id type x y z c_pe_atom c_ke_atom c_centro c_cna c_stress_atom[1] c_stress_atom[2] c_stress_atom[3] c_stress_atom[4] c_stress_atom[5] c_stress_atom[6] c_stress_atom[1] c_stress_atom[2] c_stress_atom[3] c_stress_atom[4] c_stress_atom[5] c_stress_atom[6]
1 2 -8.60782 -3.08293 -3.36072 -4.42321 0.0518451 23.4955 5 503647 -102615 -171933 -230060 -59550.3 -161386 503647 -102615 -171933 -230060 -59550.3 -161386
2 2 -8.71745 -2.74559 0.164375 -4.90956 0.00821102 12.3044 5 -384687 -351787 -83914.8 -344692 6569.65 697420 -384687 -351787 -83914.8 -344692 6569.65 697420
3 2 -9.11417 -2.69846 2.88432 -4.10938 0.0485815 33.8122 5 -593772 199705 547764 195931 23902.2 -10816.9 -593772 199705 547764 195931 23902.2 -10816.9
4 2 -8.50533 0.103626 -6.55077 -4.87099 0.033678 11.9407 5 -63519.9 989703 -115366 -174756 105635 -23932.4 -63519.9 989703 -115366 -174756 105635 -23932.4
5 1 -9.70453 -1.33612 -4.96411 -3.31534 0.0467317 22.8744 5 15597.3 313557 -25726.1 -333402 -91579.9 -119309 15597.3 313557 -25726.1 -333402 -91579.9 -119309
6 2 -8.60428 -0.227256 -3.07582 -6.21337 0.00217016 1.84998 5 -588297 -1.53325e+06 -756764 31587.2 -389368 80015.4 -588297 -1.53325e+06 -756764 31587.2 -389368 80015.4
7 1 -10.0175 -1.76987 -1.73583 -3.31341 0.0203667 28.2236 5 -161411 592537 409007 3081.93 -118569 264774 -161411 592537 409007 3081.93 -118569 264774
8 2 -8.75816 0.0287628 -0.1691 -5.05424 0.159179 10.561 5 -38504.4 192076 -92360.7 31539.6 674039 -67125 -38504.4 192076 -92360.7 31539.6 674039 -67125
9 2 -8.82793 3.01179 -6.27651 -4.45539 0.0767181 23.7781 5 -554890 909829 872914 245431 -250157 134706 -554890 909829 872914 245431 -250157 134706
10 1 -9.83726 1.24641 -4.58493 -3.60206 0.0623964 15.7746 5 -351920 449433 264747 151594 -174455 159319 -351920 449433 264747 151594 -174455 159319
11 2 -8.77596 3.24412 -3.30689 -5.36769 0.0607574 7.94035 5 -281040 -589775 571101 231025 84291.6 -36081.8 -281040 -589775 571101 231025 84291.6 -36081.8
12 1 -10.0101 1.48977 -2.00524 -3.49566 0.0227199 19.6901 5 -159975 436013 456411 34671.2 178427 -46620.6 -159975 436013 456411 34671.2 178427 -46620.6
13 2 -9.07935 2.93054 -0.0408831 -4.42394 0.0686911 26.2138 5 -391028 856388 803338 410351 323577 48270.2 -391028 856388 803338 410351 323577 48270.2
14 2 -8.76979 5.93504 -3.15745 -3.52716 0.0631125 64.2429 5 179284 -65778.2 362052 169359 1950.98 50277.8 179284 -65778.2 362052 169359 1950.98 50277.8
15 2 -6.02678 -5.8279 -0.00693838 -4.93528 0.0397164 12.6988 5 157919 206416 137483 -195006 -57720.3 -94717.6 157919 206416 137483 -195006 -57720.3 -94717.6
16 2 -5.94135 -5.92294 2.76648 -5.10179 0.0947358 6.16947 5 -1.01494e+06 -575445 -336734 -350831 -323712 251417 -1.01494e+06 -575445 -336734 -350831 -323712 251417
17 2 -6.10492 -5.90241 5.50951 -4.79836 0.0336848 12.4383 5 133701 435217 414959 -495186 126078 -155624 133701 435217 414959 -495186 126078 -155624
18 2 -5.7999 -6.24566 8.39904 -3.87508 0.0832251 41.4107 5 24378.6 263693 -89155.6 -197839 305170 320556 24378.6 263693 -89155.6 -197839 305170 320556
19 2 -5.58494 -3.30254 -6.0789 -4.56009 0.0242118 20.7287 5 81853.8 92020.4 390996 -204462 -14962.6 -134844 81853.8 92020.4 390996 -204462 -14962.6 -134844
20 2 -5.70226 -3.17755 -3.27616 -5.7493 0.0228455 5.94562 5 1.11367e+06 778394 547435 -213731 -1507.9 -508347 1.11367e+06 778394 547435 -213731 -1507.9 -508347
21 1 -7.28828 -4.1837 -1.47074 -3.73443 0.130478 14.2638 5 364746 -231176 992216 -362453 -674300 -20548 364746 -231176 992216 -362453 -674300 -20548
22 2 -5.76774 -2.9725 0.247355 -6.19607 0.0174633 5.20564 5 371360 256306 -799904 12059 -375181 106884 371360 256306 -799904 12059 -375181 106884
23 1 -7.68454 -4.51545 1.69249 -3.73095 0.0523254 6.92925 5 -58151 -309120 173079 671346 -575594 443127 -58151 -309120 173079 671346 -575594 443127
24 2 -5.75114 -3.05288 2.94475 -6.19475 0.071101 8.35299 5 -997395 -148243 -469458 -60322 333036 -156613 -997395 -148243 -469458 -60322 333036 -156613
25 1 -7.67329 -4.28358 4.20927 -3.5858 0.124311 18.7445 5 -35212 590204 97306.4 -210817 180382 359420 -35212 590204 97306.4 -210817 180382 359420
26 2 -5.94227 -3.06799 5.7881 -5.36519 0.020051 4.80963 5 343638 1.07621e+06 382353 -89801.3 462482 285478 343638 1.07621e+06 382353 -89801.3 462482 285478
27 2 -5.86184 -3.28863 8.47548 -3.99334 0.011952 33.0572 5 -85548.2 665282 -183802 114416 1579.2 -328654 -85548.2 665282 -183802 114416 1579.2 -328654
28 2 -5.68968 0.109863 -8.96577 -4.25142 0.0510053 24.4322 5 -44100.2 136654 -432986 -160656 -64720 34067.8 -44100.2 136654 -432986 -160656 -64720 34067.8
29 1 -6.83962 -1.61032 -7.52564 -3.50987 0.0225553 21.4391 5 105193 -7754.08 264088 -303405 -238417 -179299 105193 -7754.08 264088 -303405 -238417 -179299
30 2 -5.6756 0.177873 -6.12256 -6.15893 0.0781339 6.16327 5 -653951 -600067 -250579 -202748 -203175 -307032 -653951 -600067 -250579 -202748 -203175 -307032
31 1 -7.0954 -1.57044 -4.91436 -4.07811 0.00291738 9.57992 5 754285 762777 576373 -103628 108646 93041.8 754285 762777 576373 -103628 108646 93041.8
32 2 -5.82303 -0.0561456 -3.10039 -6.1786 0.0345636 1.05259 3 -937525 197770 -214101 -114988 476262 610045 -937525 197770 -214101 -114988 476262 610045
33 1 -7.05251 -1.68333 -1.54239 -4.15898 0.0159811 8.17973 5 -1.16808e+06 -1.35378e+06 -1.32507e+06 -221350 143873 314956 -1.16808e+06 -1.35378e+06 -1.32507e+06 -221350 143873 314956
34 2 -5.83209 0.114337 -0.178234 -6.21616 0.00822595 0.954031 3 426541 -85974.5 -557042 -130726 -341975 -214440 426541 -85974.5 -557042 -130726 -341975 -214440
35 1 -7.28766 -1.1761 1.68418 -4.07416 0.0738358 4.7722 5 610100 797774 566595 -276919 -117036 -533935 610100 797774 566595 -276919 -117036 -533935
36 2 -6.09883 0.4558 3.17649 -5.78108 0.0893362 5.02998 5 -260341 -332004 -715057 162617 -117614 230908 -260341 -332004 -715057 162617 -117614 230908
37 1 -7.36519 -1.5165 4.23272 -3.78982 0.019534 11.0834 5 203214 685405 331442 66559 212994 2101.98 203214 685405 331442 66559 212994 2101.98
38 2 -6.28802 0.230547 5.93187 -4.42761 0.0799546 25.5021 5 -232295 713496 261644 649848 299226 141373 -232295 713496 261644 649848 299226 141373
39 1 -6.9385 1.93588 -7.74381 -3.68539 0.0409273 12.7323 5 561228 205708 198576 -253054 -487735 39214.1 561228 205708 198576 -253054 -487735 39214.1
40 2 -5.56575 2.92192 -5.87738 -6.23089 0.125584 7.26816 5 -2.33604e+06 -1.0284e+06 -593339 230580 -139550 62731 -2.33604e+06 -1.0284e+06 -593339 230580 -139550 62731
41 1 -7.30409 1.46705 -4.54545 -4.16252 0.0976651 5.19632 3 -781617 -300763 -361946 169745 -163689 74607.7 -781617 -300763 -361946 169745 -163689 74607.7
42 2 -5.78396 3.10013 -3.12376 -6.16522 0.131676 0.776178 3 42167.4 242466 -594616 -796724 36614.8 -945.014 42167.4 242466 -594616 -796724 36614.8 -945.014
43 1 -7.35174 1.66791 -1.74721 -4.17037 0.0506042 4.46635 3 -677264 -581733 -548142 -626701 398469 313452 -677264 -581733 -548142 -626701 398469 313452
44 2 -5.69004 2.94733 -0.239278 -6.20682 0.00484098 1.63117 3 -1.56766e+06 -868724 -796701 568606 527904 -281021 -1.56766e+06 -868724 -796701 568606 527904 -281021
45 1 -7.34563 1.63467 1.3296 -3.93728 0.0764986 6.2565 5 250731 516197 316101 1651.27 -155814 -61405.2 250731 516197 316101 1651.27 -155814 -61405.2
46 2 -5.95142 3.21607 3.00381 -4.95348 0.016275 11.6463 5 383752 309391 -274074 -38009 285279 -208162 383752 309391 -274074 -38009 285279 -208162
47 1 -6.89805 4.41903 -7.2975 -3.50117 0.0350929 19.7572 5 346799 351923 -395169 584766 -94085.4 128219 346799 351923 -395169 584766 -94085.4 128219
48 2 -5.74015 6.38357 -6.12183 -4.46495 0.0635193 25.6405 5 423820 -91887 819253 370108 -64866.8 306552 423820 -91887 819253 370108 -64866.8 306552
49 1 -7.20521 4.63076 -4.87493 -4.0139 0.0283197 4.66477 5 315366 250564 -452020 -186863 277396 38060.4 315366 250564 -452020 -186863 277396 38060.4
50 2 -6.06879 6.12157 -3.014 -5.39802 0.0229422 8.60735 5 -181385 141483 1.08e+06 504436 -89030.9 63326.1 -181385 141483 1.08e+06 504436 -89030.9 63326.1
51 1 -7.45803 4.4262 -1.39143 -4.03285 0.0256733 4.71915 5 371597 309752 -47539.9 -106243 -346965 -166587 371597 309752 -47539.9 -106243 -346965 -166587
52 2 -6.06648 6.29087 -0.0933495 -4.80562 0.0671134 16.2887 5 191135 247364 962303 406771 -81429.3 -228083 191135 247364 962303 406771 -81429.3 -228083
53 1 -7.19108 4.32366 1.12254 -3.68441 0.0852462 13.7165 5 399551 586439 -98386.2 696469 378081 -387444 399551 586439 -98386.2 696469 378081 -387444
54 2 -2.6888 -8.82363 2.6148 -4.18309 0.019421 26.5554 5 379390 -583289 570028 -24196 -228426 -188401 379390 -583289 570028 -24196 -228426 -188401
55 2 -2.76282 -8.96986 5.42829 -4.21684 0.0175724 27.1254 5 -18277.6 -539883 395367 11494.2 -13065.8 84975.6 -18277.6 -539883 395367 11494.2 -13065.8 84975.6
56 2 -2.60709 -5.87481 -2.73715 -5.10077 0.10285 7.82099 5 245301 -78879.3 -130747 -21196.7 50951 -557478 245301 -78879.3 -130747 -21196.7 50951 -557478
57 1 -4.21881 -7.05521 -1.17738 -3.34065 0.0682654 19.8198 5 420561 -173886 219763 -231591 -229535 -77436.7 420561 -173886 219763 -231591 -229535 -77436.7
58 2 -2.45984 -5.90483 0.0922033 -6.13459 0.0912842 7.32672 5 5945.75 423191 -527934 -421057 139000 -488486 5945.75 423191 -527934 -421057 139000 -488486
59 1 -4.27612 -7.28637 1.36217 -3.76231 0.0471321 12.595 5 379562 269100 878303 -156536 -193629 -358570 379562 269100 878303 -156536 -193629 -358570
60 2 -2.48862 -6.13324 2.86437 -6.208 0.0262467 8.49229 5 -703364 -1.05228e+06 -900083 -280955 -77853.1 292928 -703364 -1.05228e+06 -900083 -280955 -77853.1 292928
61 1 -4.42541 -7.41354 4.15995 -3.8663 0.0491365 11.8996 5 168822 285127 689340 9042.06 -433798 419079 168822 285127 689340 9042.06 -433798 419079
62 2 -2.52381 -6.18571 5.60288 -6.20321 0.00749625 8.27448 5 -742724 -825369 -1.18308e+06 -70444.5 257567 144235 -742724 -825369 -1.18308e+06 -70444.5 257567 144235
63 1 -4.4418 -7.55969 6.69186 -3.64898 0.119187 16.7812 5 29860.6 -95517.8 153825 48015.7 226250 110193 29860.6 -95517.8 153825 48015.7 226250 110193
64 2 -2.5574 -6.41745 8.35142 -4.82548 0.0407202 14.7765 5 759356 651246 -36506.3 109829 -33982.7 482962 759356 651246 -36506.3 109829 -33982.7 482962
65 2 -2.84515 -2.98112 -5.93701 -5.38653 0.0236986 6.67286 5 -254121 -1.08763e+06 -242278 230553 -56122.7 -594987 -254121 -1.08763e+06 -242278 230553 -56122.7 -594987
66 1 -4.05274 -4.79379 -4.51044 -3.55878 0.0366011 19.3852 5 506585 -119902 502890 -293769 -265809 -39294.6 506585 -119902 502890 -293769 -265809 -39294.6
67 2 -2.78875 -3.00836 -3.02919 -6.16108 0.027461 4.94316 5 310277 255418 499750 135237 -212366 -52215.5 310277 255418 499750 135237 -212366 -52215.5
68 1 -4.36819 -4.44082 -1.40293 -4.08947 0.0076826 6.27521 5 749793 695519 817265 -357409 355928 -311081 749793 695519 817265 -357409 355928 -311081
69 2 -2.92338 -2.8645 0.118675 -6.14269 0.154691 5.27126 5 -137833 652727 -414346 -35857.7 -400169 643747 -137833 652727 -414346 -35857.7 -400169 643747
70 1 -4.11715 -4.63884 1.64177 -4.17649 0.125482 8.59995 5 -690867 -777558 -384973 207227 450179 149569 -690867 -777558 -384973 207227 450179 149569
71 2 -2.98876 -2.67858 2.99126 -6.24597 0.0857287 2.74328 5 -560860 -442241 -669420 29261.4 427873 7854.79 -560860 -442241 -669420 29261.4 427873 7854.79
72 1 -4.12329 -4.70871 4.24684 -4.16937 0.0181116 8.47218 5 -448750 -458257 182064 -255783 -191633 -73578 -448750 -458257 182064 -255783 -191633 -73578
73 2 -3.03739 -2.86088 5.73602 -6.19624 0.00461802 8.95708 5 -164656 -607137 -1.00681e+06 -505247 75198 125217 -164656 -607137 -1.00681e+06 -505247 75198 125217
74 1 -4.16008 -4.80456 6.87006 -4.18427 0.0694951 8.11966 5 -460591 -1.08495e+06 -449400 -328617 376666 226996 -460591 -1.08495e+06 -449400 -328617 376666 226996
75 2 -3.11353 -2.82182 8.49506 -5.88812 0.0586324 9.59415 5 -491224 214431 -577756 -7271.73 20703.6 393625 -491224 214431 -577756 -7271.73 20703.6 393625
76 1 -4.12111 -4.80344 9.6792 -3.45671 0.0143511 22.4854 5 28466.5 150689 -85195.6 -10744.1 28034.3 29389.1 28466.5 150689 -85195.6 -10744.1 28034.3 29389.1
77 2 -2.9477 0.0411281 -9.1406 -4.33042 0.0205541 20.1623 5 627593 -385697 -482688 -36755.7 -201021 37239.8 627593 -385697 -482688 -36755.7 -201021 37239.8
78 1 -4.28433 -1.65832 -7.61358 -3.85838 0.0414795 6.3293 5 630244 276361 187665 -27207.1 -385561 41826 630244 276361 187665 -27207.1 -385561 41826
79 2 -2.93467 0.216675 -6.32978 -6.2122 0.0351095 7.79508 5 -1.0244e+06 -212860 -321402 -25337.7 -9209.8 -44664.4 -1.0244e+06 -212860 -321402 -25337.7 -9209.8 -44664.4
80 1 -4.1835 -1.30109 -4.61085 -4.152 0.0739714 9.09531 5 -18418.7 -695617 -211874 435995 306101 -410765 -18418.7 -695617 -211874 435995 306101 -410765
81 2 -2.67931 -0.194115 -2.79567 -6.22825 0.0397583 2.51984 5 -927113 -734453 -673218 440399 236325 -331922 -927113 -734453 -673218 440399 236325 -331922
82 1 -4.45184 -1.65708 -1.55651 -4.16661 0.0400035 5.2621 5 -343619 -132970 -176967 340502 -35289.5 390345 -343619 -132970 -176967 340502 -35289.5 390345
83 2 -2.84256 -0.0383253 0.086399 -6.17644 0.0409397 0.853977 3 965842 468653 675939 63603.3 214518 -25095.4 965842 468653 675939 63603.3 214518 -25095.4
84 1 -4.67997 -1.07726 1.72642 -4.16759 0.045558 7.59497 5 -467214 -449227 -28668.7 -468590 -701535 350341 -467214 -449227 -28668.7 -468590 -701535 350341
85 2 -2.87918 0.15663 3.0874 -6.16099 0.100735 4.55151 5 246377 227623 -235318 -548104 -246932 8254.29 246377 227623 -235318 -548104 -246932 8254.29
86 1 -4.61321 -1.23258 4.47585 -4.18561 0.0182489 1.36173 5 -1.20942e+06 -1.05087e+06 -327522 409135 95981.8 29458.3 -1.20942e+06 -1.05087e+06 -327522 409135 95981.8 29458.3
87 2 -2.79474 -0.118358 5.88763 -6.25133 0.0310939 2.29117 5 -128390 -660632 -178630 -367383 -231648 -113698 -128390 -660632 -178630 -367383 -231648 -113698
88 1 -4.72447 -1.17301 7.31502 -3.94911 0.0389203 4.80005 5 212898 349395 721553 541869 -43995.1 165755 212898 349395 721553 541869 -43995.1 165755
89 2 -2.87508 -0.0196672 8.83122 -4.68823 0.0347929 10.702 5 451604 1.07397e+06 -68735 9622.94 248299 86786.4 451604 1.07397e+06 -68735 9622.94 248299 86786.4
90 1 -4.27362 1.98857 -7.90818 -3.82841 0.00769157 5.59225 5 759465 402656 181970 10877.6 -88565 -171676 759465 402656 181970 10877.6 -88565 -171676
91 2 -2.91601 3.04471 -5.96759 -6.21212 0.00387843 6.01188 5 -2.11583e+06 -513446 -139100 -106199 119398 239208 -2.11583e+06 -513446 -139100 -106199 119398 239208
92 1 -4.07384 1.32815 -4.29313 -4.17341 0.06614 9.22512 5 -717052 -1.27641e+06 -932861 -902352 34409.5 9396.17 -717052 -1.27641e+06 -932861 -902352 34409.5 9396.17
93 2 -2.83944 3.14747 -3.08172 -6.20842 0.109372 1.18157 3 -109024 -788474 -383854 -327169 -302688 -458072 -109024 -788474 -383854 -327169 -302688 -458072
94 1 -4.17284 1.47825 -1.67692 -4.16237 0.032849 5.46156 3 -378360 -549701 -469663 730359 947465 -527157 -378360 -549701 -469663 730359 947465 -527157
95 2 -2.95822 3.13666 0.0324673 -6.18724 0.109744 0.569969 3 -784506 -85531.7 98067.8 -197693 219588 278080 -784506 -85531.7 98067.8 -197693 219588 278080
96 1 -4.4097 1.53678 1.5278 -4.17041 0.0986771 4.72066 3 -607378 -488979 -681922 -196341 38900.8 116340 -607378 -488979 -681922 -196341 38900.8 116340
97 2 -3.02142 3.20599 2.92161 -6.20298 0.0920546 0.792833 3 64649.1 356036 -481984 -26521 96065.6 -227345 64649.1 356036 -481984 -26521 96065.6 -227345
98 1 -4.39087 1.68145 4.70384 -4.09041 0.0290956 8.54129 5 655773 887177 222060 -202110 -339139 -483713 655773 887177 222060 -202110 -339139 -483713
99 2 -3.09923 3.33405 6.19937 -5.75933 0.0619058 5.61155 5 -287494 -121849 -186021 -157874 -73444.6 -36705.3 -287494 -121849 -186021 -157874 -73444.6 -36705.3
100 1 -4.3781 1.41305 7.19169 -3.76624 0.0483855 10.3644 5 366619 594713 19624 301479 341640 458023 366619 594713 19624 301479 341640 458023
101 2 -2.89681 2.94166 8.96277 -3.8409 0.00101379 41.0384 5 733590 929845 173902 846073 452592 -404602 733590 929845 173902 846073 452592 -404602
102 1 -4.37147 4.55724 -7.41102 -3.66999 0.0261603 12.1123 5 727164 432116 -53632.6 -226454 -200367 234503 727164 432116 -53632.6 -226454 -200367 234503
103 2 -2.91654 6.27155 -6.14806 -4.97506 0.082618 6.79472 5 263150 -424790 -442500 -185271 52396.4 239542 263150 -424790 -442500 -185271 52396.4 239542
104 1 -4.29604 4.78273 -4.45433 -4.16637 0.0362062 4.53385 3 -190785 -787583 -403391 -97829.2 23395.1 483592 -190785 -787583 -403391 -97829.2 23395.1 483592
105 2 -2.61048 5.94867 -2.9781 -6.21627 0.142051 1.94779 5 -1.17427e+06 -1.49657e+06 -1.13184e+06 414565 165029 -211007 -1.17427e+06 -1.49657e+06 -1.13184e+06 414565 165029 -211007
106 1 -4.46109 4.70505 -1.5961 -4.15563 0.0558499 1.00865 3 -525261 -514308 -264707 -531676 -411365 -59283 -525261 -514308 -264707 -531676 -411365 -59283
107 2 -2.76355 5.96435 -0.201206 -6.20703 0.0435071 1.81258 5 -1.0369e+06 -455455 -2.05007e+06 -166948 129349 -454398 -1.0369e+06 -455455 -2.05007e+06 -166948 129349 -454398
108 1 -4.56902 4.74231 1.38137 -4.07694 0.028632 8.62708 5 720308 504588 762424 328336 186806 116949 720308 504588 762424 328336 186806 116949
109 2 -3.00423 6.09221 3.10194 -5.30328 0.0377009 10.009 5 652511 345863 30245.5 442627 -197225 -87716 652511 345863 30245.5 442627 -197225 -87716
110 1 -4.53612 4.55318 4.57029 -3.62375 0.0560568 18.3427 5 -56915.9 136487 317653 106354 -115161 -190233 -56915.9 136487 317653 106354 -115161 -190233
111 2 -3.05202 6.20918 5.92811 -3.95059 0.0108567 36.8955 5 316693 88755.1 364970 184713 424481 -259783 316693 88755.1 364970 184713 424481 -259783
112 1 -4.21485 7.43371 -4.18811 -3.81753 0.0222564 11.4791 5 590859 15562.5 96990.4 209313 -124709 62195.7 590859 15562.5 96990.4 209313 -124709 62195.7
113 2 -2.69911 9.19033 -3.23398 -3.94961 0.0586714 40.0568 5 1.18706e+06 -541256 227207 250462 -399100 -108222 1.18706e+06 -541256 227207 250462 -399100 -108222
114 1 -4.25151 7.46432 -1.66195 -3.7477 0.0497402 12.9136 5 884983 459236 832766 539829 -124549 -435814 884983 459236 832766 539829 -124549 -435814
115 1 -4.16782 7.25315 1.25195 -3.44589 0.0678627 21.0599 5 203645 -314181 619936 174360 353120 -143816 203645 -314181 619936 174360 353120 -143816
116 2 0.906718 -8.89727 -0.211059 -4.05755 0.0484226 37.274 5 842475 -695314 907199 -395824 -183566 526709 842475 -695314 907199 -395824 -183566 526709
117 2 0.349378 -6.22693 -5.96428 -4.19489 0.104124 28.28 5 -112280 32548.8 309887 -512541 -143206 -325029 -112280 32548.8 309887 -512541 -143206 -325029
118 2 0.11846 -5.71782 -3.13221 -5.88473 0.0342951 6.12027 5 377850 797902 -95080.7 79970.3 -392663 270825 377850 797902 -95080.7 79970.3 -392663 270825
119 1 -0.778102 -7.26078 -1.30761 -3.71092 0.0305178 12.8206 5 310194 372403 650995 -302492 274065 -589774 310194 372403 650995 -302492 274065 -589774
120 2 0.387365 -5.57014 0.154362 -6.22366 0.102743 5.16639 5 -108039 -1.25766e+06 -1.52853e+06 293915 -171315 -365075 -108039 -1.25766e+06 -1.52853e+06 293915 -171315 -365075
121 1 -0.839284 -7.64433 1.2803 -3.87237 0.0878724 10.2241 5 1.12888e+06 368036 1.24068e+06 -68075.4 -93255.1 -512402 1.12888e+06 368036 1.24068e+06 -68075.4 -93255.1 -512402
122 2 0.222599 -5.9329 2.84747 -6.19368 0.133413 9.57756 2 -1.00866e+06 140311 -764456 -22712.6 -135470 610929 -1.00866e+06 140311 -764456 -22712.6 -135470 610929
123 1 -0.7889 -7.89553 4.149 -3.75092 0.0732318 8.6009 5 296792 -119504 794730 -226972 79444.5 23933.9 296792 -119504 794730 -226972 79444.5 23933.9
124 2 0.236894 -6.02845 5.73412 -5.04253 0.032736 7.69994 5 -99789.9 506615 -118959 -301112 -296762 -17141.7 -99789.9 506615 -118959 -301112 -296762 -17141.7
125 1 -0.999698 -7.91828 6.88711 -3.29355 0.0116981 31.4505 5 246761 235231 774252 153241 -371313 459258 246761 235231 774252 153241 -371313 459258
126 2 0.229232 -3.06869 -8.94446 -4.27798 0.0384272 24.2413 5 182833 120051 -279416 -456513 -17685.9 -170707 182833 120051 -279416 -456513 -17685.9 -170707
127 2 -0.112624 -3.02483 -6.22449 -5.90813 0.0229412 9.29172 5 128876 1.16756e+06 437508 480364 -221182 -125187 128876 1.16756e+06 437508 480364 -221182 -125187
128 1 -1.46574 -4.78545 -4.92002 -3.86851 0.00505673 6.83551 5 497889 239184 -7911.07 527048 -333831 602260 497889 239184 -7911.07 527048 -333831 602260
129 2 0.0309873 -2.78635 -3.2815 -6.13608 0.00745912 0.862626 5 184089 768892 545741 375590 177474 385761 184089 768892 545741 375590 177474 385761
130 1 -1.15112 -4.11307 -1.3388 -4.17994 0.0613964 5.43085 5 30627.5 -697328 -419868 -99870 -236828 251126 30627.5 -697328 -419868 -99870 -236828 251126
131 2 0.385548 -2.80548 0.26898 -6.1778 0.0388477 5.63944 5 -542245 -483585 -663880 -4667.34 311707 -336224 -542245 -483585 -663880 -4667.34 311707 -336224
132 1 -1.35498 -4.11129 1.70996 -4.17621 0.00707306 7.77387 5 -1.14477e+06 -1.40139e+06 -589029 16323.3 -522203 -80159.1 -1.14477e+06 -1.40139e+06 -589029 16323.3 -522203 -80159.1
133 2 0.479059 -3.09819 3.06251 -6.21945 0.0303311 2.9334 5 -891260 -380686 -645998 -697884 4580.7 -282844 -891260 -380686 -645998 -697884 4580.7 -282844
134 1 -1.43364 -4.24333 4.35365 -4.16744 0.0801185 8.49982 5 -504345 -650625 254328 -504486 80254.9 222302 -504345 -650625 254328 -504486 80254.9 222302
135 2 0.537736 -3.30178 5.8876 -6.00427 0.0836203 6.64743 5 113622 114397 268085 82357 303848 -254474 113622 114397 268085 82357 303848 -254474
136 1 -1.4301 -4.3724 7.15789 -4.13531 0.0462034 8.75419 5 833651 300283 604224 -448908 -9176.28 281144 833651 300283 604224 -448908 -9176.28 281144
137 2 0.358086 -3.21354 8.79009 -4.42008 0.0172859 27.4869 5 -500780 258414 121592 313577 101041 -19542.4 -500780 258414 121592 313577 101041 -19542.4
138 1 -1.62765 -4.46771 9.62898 -3.5271 0.0258611 20.1646 5 -72871.6 571385 -261651 211885 -28225.5 333921 -72871.6 571385 -261651 211885 -28225.5 333921
139 2 -0.105375 0.195718 -9.16648 -4.63735 0.0429185 16.3851 5 1.15485e+06 680177 -507958 479752 12280.2 236005 1.15485e+06 680177 -507958 479752 12280.2 236005
140 1 -1.66358 -1.70694 -7.87902 -3.91735 0.0116099 5.20645 5 714853 810182 403522 229692 -273224 15663.4 714853 810182 403522 229692 -273224 15663.4
141 2 -0.258367 0.144386 -6.44028 -6.17231 0.0455343 8.24781 5 -1.70444e+06 -223962 -1.12064e+06 -158082 173563 -20574 -1.70444e+06 -223962 -1.12064e+06 -158082 173563 -20574
142 1 -1.51259 -1.23779 -4.73389 -4.16969 0.0493398 8.43057 5 84234.9 -776030 -1.13317e+06 28334.6 489837 -238931 84234.9 -776030 -1.13317e+06 28334.6 489837 -238931
143 2 0.120077 0.0562666 -2.95089 -6.2101 0.0263033 0.91707 5 -384373 379534 501964 196811 -71711.3 302282 -384373 379534 501964 196811 -71711.3 302282
144 1 -1.17106 -1.60888 -1.27504 -4.15987 0.0248272 5.22301 5 -182230 -681701 -581394 -57300.2 -190868 239838 -182230 -681701 -581394 -57300.2 -190868 239838
145 2 0.148342 0.158232 0.047469 -6.21006 0.032728 0.747479 3 232218 -193360 -68586.7 111031 -185018 -15065.3 232218 -193360 -68586.7 111031 -185018 -15065.3
146 1 -1.20855 -1.4042 1.73707 -4.15977 0.14324 8.31769 3 -313494 -49798.9 260814 -540692 745173 -386054 -313494 -49798.9 260814 -540692 745173 -386054
147 2 -0.0941937 0.321857 3.24253 -6.2325 0.00922999 2.86484 5 -484558 -303240 -936341 -150554 -16834.7 212324 -484558 -303240 -936341 -150554 -16834.7 212324
148 1 -1.04229 -1.71028 4.51677 -4.16052 0.115144 8.58816 5 -134065 -174695 234521 -581041 712538 -229890 -134065 -174695 234521 -581041 712538 -229890
149 2 0.101418 0.135932 5.95435 -6.17745 0.0398869 6.49357 5 -584599 -549281 -1.30838e+06 143046 523533 -567970 -584599 -549281 -1.30838e+06 143046 523533 -567970
150 1 -1.13894 -1.77401 7.08098 -4.15747 0.0184677 9.3435 5 -750274 -672165 -436015 -10824.4 -133843 -57563.5 -750274 -672165 -436015 -10824.4 -133843 -57563.5
151 2 0.0607259 0.00834362 8.79831 -5.36986 0.0694037 11.0797 5 719414 1.31671e+06 -494651 211153 -90069.8 -65235.9 719414 1.31671e+06 -494651 211153 -90069.8 -65235.9
152 1 -1.32158 -1.77354 9.93333 -3.4573 0.0122083 22.8665 5 460692 730294 -137779 259457 52616 61665.8 460692 730294 -137779 259457 52616 61665.8
153 1 -1.77507 1.98716 -8.05536 -3.78062 0.0613398 9.37063 5 119144 250563 -55376.8 -182047 30575.9 -235483 119144 250563 -55376.8 -182047 30575.9 -235483
154 2 -0.241744 2.93988 -6.31925 -6.16096 0.0112811 4.60106 5 -1.85334e+06 -933138 446158 94445.2 27012.4 -125569 -1.85334e+06 -933138 446158 94445.2 27012.4 -125569
155 1 -1.49326 1.40904 -4.44607 -4.18083 0.0179565 9.16373 5 -99353.4 -117456 -317847 224243 -323143 122119 -99353.4 -117456 -317847 224243 -323143 122119
156 2 0.113812 2.98311 -3.16084 -6.15434 0.0086815 6.07076 5 -165985 265927 913238 283828 703434 -354662 -165985 265927 913238 283828 703434 -354662
157 1 -1.41616 1.64242 -1.42562 -4.17447 0.0576655 4.29911 3 -30802.8 -179213 88710.4 71522.3 7954.06 -47341.1 -30802.8 -179213 88710.4 71522.3 7954.06 -47341.1
158 2 0.255265 3.01912 0.142047 -6.20759 0.047461 0.848294 3 -395439 -320212 32664.5 149335 -156824 333107 -395439 -320212 32664.5 149335 -156824 333107
159 1 -1.44263 1.68664 1.49122 -4.17012 0.0882519 0.435597 3 -479384 -334316 -633516 182598 113124 391274 -479384 -334316 -633516 182598 113124 391274
160 2 0.117443 3.13997 3.11201 -6.14999 0.0570368 1.04963 5 270835 -163728 -4081.51 461554 505690 -133512 270835 -163728 -4081.51 461554 505690 -133512
161 1 -1.73472 1.8877 4.69321 -4.17823 0.0425463 6.88623 5 -381305 -274074 -34230.3 -558420 -403064 59003.2 -381305 -274074 -34230.3 -558420 -403064 59003.2
162 2 0.163195 3.07218 5.94903 -6.22932 0.0944895 4.43503 5 -600883 -358723 -510475 -162605 -215506 51620.2 -600883 -358723 -510475 -162605 -215506 51620.2
163 1 -1.41588 1.56159 7.32901 -4.17775 0.0304061 4.34188 5 -1.3007e+06 -1.52515e+06 -1.16826e+06 217877 737617 -884429 -1.3007e+06 -1.52515e+06 -1.16826e+06 217877 737617 -884429
164 2 0.0312623 3.10103 8.84558 -4.71339 0.0696623 11.8734 5 912128 587957 -322165 -3415.9 -149091 -535373 912128 587957 -322165 -3415.9 -149091 -535373
165 1 -1.76129 4.50699 -7.67169 -3.5409 0.0380954 13.4183 5 829952 118026 -308583 -244218 136792 174359 829952 118026 -308583 -244218 136792 174359
166 2 -0.168962 6.27619 -6.60215 -4.75755 0.0347943 15.4332 5 34482.5 22541.7 537649 -219926 -131503 47093.5 34482.5 22541.7 537649 -219926 -131503 47093.5
167 1 -1.28516 4.66005 -4.71936 -4.15767 0.0928497 5.96801 5 -637744 -198672 -604353 267268 175222 -644176 -637744 -198672 -604353 267268 175222 -644176
168 2 0.175034 5.97594 -2.9499 -6.16658 0.0605344 7.33576 5 -119918 207092 387922 -34825.8 33915.7 267865 -119918 207092 387922 -34825.8 33915.7 267865
169 1 -1.21346 4.26605 -1.4368 -4.16128 0.0423085 5.15098 5 -1.47254e+06 -1.88298e+06 -1.45487e+06 7898.44 -116488 -584249 -1.47254e+06 -1.88298e+06 -1.45487e+06 7898.44 -116488 -584249
170 2 0.0633213 6.04048 -0.158299 -6.19843 0.0847149 1.9839 5 -786069 -732264 -1.3509e+06 -551380 -340345 -331311 -786069 -732264 -1.3509e+06 -551380 -340345 -331311
171 1 -1.35861 4.66055 1.58848 -4.17313 0.0269513 5.19111 3 133826 259007 430027 -39519.9 194786 259166 133826 259007 430027 -39519.9 194786 259166
172 2 -0.107749 6.42995 3.13526 -5.22649 0.150752 10.9235 5 715176 -165586 -270083 35631.2 -169886 124354 715176 -165586 -270083 35631.2 -169886 124354
173 1 -1.35073 4.56144 4.58268 -4.17602 0.0568813 4.59649 5 -972873 -854914 -490094 674111 399771 -115166 -972873 -854914 -490094 674111 399771 -115166
174 2 -0.212562 6.59007 5.89458 -4.35026 0.0155747 28.4466 5 575281 -164982 329525 -238801 -38123 -281632 575281 -164982 329525 -238801 -38123 -281632
175 1 -1.32946 4.74425 7.34525 -3.80675 0.242243 9.39893 5 145455 327761 -274013 -149470 -679898 -570587 145455 327761 -274013 -149470 -679898 -570587
176 1 -1.23733 7.49094 -4.55021 -3.93351 0.0569168 10.295 5 603600 317432 123922 -130304 -117834 126643 603600 317432 123922 -130304 -117834 126643
177 2 0.295254 8.79117 -2.9114 -4.56815 0.00669348 12.4548 5 1.02327e+06 -258789 549114 -241377 86575.5 337509 1.02327e+06 -258789 549114 -241377 86575.5 337509
178 1 -1.6686 7.82174 -1.36887 -3.94107 0.0414304 6.45287 5 -150290 -287948 -94379.6 -667371 -140392 540466 -150290 -287948 -94379.6 -667371 -140392 540466
179 2 0.24709 8.82541 -0.0676798 -4.13756 0.00258388 25.6289 5 -250778 -532992 628989 28595.2 -355643 -77039.1 -250778 -532992 628989 28595.2 -355643 -77039.1
180 1 -1.53937 7.53393 1.34104 -3.71847 0.0304139 12.198 5 735500 265010 722549 294742 -557964 -378775 735500 265010 722549 294742 -557964 -378775
181 2 2.88101 -8.93185 -2.52009 -4.1046 0.0454615 38.4757 5 580933 -629409 810231 564675 -536415 -518141 580933 -629409 810231 564675 -536415 -518141
182 2 3.16784 -6.03537 -5.82708 -4.99724 0.0104573 6.19744 5 -248690 -323707 -464315 61273.4 191899 19610.9 -248690 -323707 -464315 61273.4 191899 19610.9
183 1 1.71979 -7.46109 -4.1365 -3.64832 0.0366437 16.6489 5 605067 249843 65955.7 -361676 289934 45620.7 605067 249843 65955.7 -361676 289934 45620.7
184 2 3.17615 -5.51916 -3.07458 -6.2182 0.0394966 1.05424 5 -269278 -1.01807e+06 -690842 -304159 77553.9 -367259 -269278 -1.01807e+06 -690842 -304159 77553.9 -367259
185 1 1.71242 -6.93047 -1.53943 -4.17719 0.0995896 8.8904 5 -532111 -905127 -427410 -81391.3 111006 188931 -532111 -905127 -427410 -81391.3 111006 188931
186 2 3.24618 -5.50839 -0.202884 -6.22675 0.0044601 1.9712 5 -544316 -206436 -846939 273405 38442 -123495 -544316 -206436 -846939 273405 38442 -123495
187 1 1.93836 -7.23114 1.37985 -3.88218 0.0632351 12.7057 5 1.30942e+06 531049 1.00914e+06 359168 -205986 295963 1.30942e+06 531049 1.00914e+06 359168 -205986 295963
188 2 3.76435 -6.27214 3.04568 -5.14766 0.0411681 9.95944 5 35847.4 185710 -81761.7 413789 131104 -73639.2 35847.4 185710 -81761.7 413789 131104 -73639.2
189 1 1.804 -7.31216 4.10969 -3.42425 0.158973 21.5749 5 291460 -371655 527931 -30656.5 -438607 354813 291460 -371655 527931 -30656.5 -438607 354813
190 2 3.13796 -3.06894 -8.95864 -4.47257 0.0668569 20.1591 5 -82096.4 134602 -339763 -144190 -28481.5 -269678 -82096.4 134602 -339763 -144190 -28481.5 -269678