ITEM: TIMESTEP
0
ITEM: NUMBER OF ATOMS
318
ITEM: BOX BOUNDS ss ss ss
-1.0727292196800001e+01 1.0808452196800001e+01
-9.3754141968000013e+00 9.1711741968000009e+00
-1.0411678196800001e+01 1.0965145196800000e+01
ITEM: ATOMS id type x y z c_pe c_ke c_stress[1] c_stress[2] c_stress[3]
1 2 -8.74828 -2.94765 -2.93824 -3.65924 0 -2.92623e+06 -5.24353e+06 -1.5388e+06
2 2 -8.43885 -2.97656 -0.189106 -3.51989 0 -7.57869e+06 -4.62254e+06 -9.12987e+06
3 2 -8.42191 -2.67458 2.75494 1.41656 0 -3.49778e+07 -2.61396e+07 -2.38217e+07
4 2 -8.73446 -0.030687 -6.28893 -4.268 0 -3.77036e+06 -1.75115e+06 -3.68167e+06
5 1 -10.3326 -1.97532 -5.16108 -2.69876 0 1.7725e+06 2.30165e+06 2.3971e+06
6 2 -9.06757 -0.196336 -3.03877 -5.55195 0 -333841 1.53419e+06 -175632
7 1 -10.6793 -1.82428 -1.18412 -2.88187 0 1.87921e+06 1.74208e+06 1.47047e+06
8 2 -8.96611 0.129393 -0.548076 -3.50914 0 -6.18853e+06 -9.19901e+06 -5.25302e+06
9 2 -9.06217 3.15748 -6.49554 -4.13087 0 -1.34175e+06 1.21956e+06 1.90603e+06
10 1 -10.2923 1.43544 -4.72896 -3.27357 0 819967 2.32587e+06 2.19487e+06
11 2 -9.07946 3.68249 -3.13758 -4.80446 0 -941941 1.51915e+06 2.08233e+06
12 1 -10.7244 1.86453 -1.9941 -3.087 0 631554 2.25415e+06 2.33964e+06
13 2 -8.83507 2.53319 -0.518962 -1.00178 0 -1.51285e+07 -1.45526e+07 -1.43696e+07
14 2 -8.83869 6.36168 -3.08185 -3.41909 0 -1.3731e+06 -387641 277380
15 2 -5.91791 -6.01175 -0.564289 -4.37068 0 1.56809e+06 2.6067e+06 2.85035e+06
16 2 -6.10008 -6.05985 3.21521 -4.7515 0 1.72618e+06 1.27594e+06 3.41771e+06
17 2 -5.77944 -6.45252 6.0092 -3.57614 0 -4.23615e+06 -2.3976e+06 192054
18 2 -5.99915 -6.12506 9.11091 -3.65165 0 -77814.2 -54989 1.18241e+06
19 2 -5.5722 -2.62519 -6.40154 -4.40563 0 -566440 -1.42383e+06 669834
20 2 -5.97627 -2.80609 -2.83939 -5.23189 0 -1.99463e+06 -1.63573e+06 974777
21 1 -7.53501 -4.46944 -1.95957 -3.29059 0 -3.16506e+06 -5.58898e+06 -551025
22 2 -6.2437 -2.66099 0.290392 -2.35829 0 -1.8965e+07 -1.49946e+07 -6.37165e+06
23 1 -7.41225 -4.1109 1.49802 -2.46817 0 -3.07199e+06 -8.4111e+06 -1.57797e+07
24 2 -6.07755 -2.79701 3.3602 1.79711 0 -5.86318e+07 -3.90267e+07 -2.39704e+06
25 1 -7.40134 -3.94173 3.61413 0.335201 0 -4.41245e+07 -5.12911e+07 -1.91904e+07
26 2 -5.63524 -2.87972 5.82134 4.07029 0 -4.82096e+07 -1.36329e+07 -3.42079e+07
27 2 -5.85538 -3.50522 8.86026 -3.87165 0 -2.91507e+06 -733122 -5.30274e+06
28 2 -5.77537 0.554618 -9.31977 -3.39655 0 -1.296e+06 -555876 -3.66896e+06
29 1 -7.6343 -1.54975 -7.38002 -3.01008 0 -1.13106e+06 -3.47606e+06 -2.84083e+06
30 2 -5.78392 -0.05069 -5.99376 -5.0714 0 -6.10858e+06 -1.46461e+06 -6.54036e+06
31 1 -7.36127 -1.10642 -4.85268 -3.51744 0 -7.3161e+06 -4.77961e+06 -5.72421e+06
32 2 -5.98183 -0.009188 -3.57476 -2.54931 0 -1.68953e+07 -2.20074e+07 -4.68566e+06
33 1 -7.30126 -1.31976 -1.62447 -3.78477 0 -6.78803e+06 -5.79864e+06 -6.86534e+06
34 2 -5.95377 -0.317701 -0.245339 -5.0812 0 -3.06741e+06 -3.35162e+06 -1.59401e+06
35 1 -7.49387 -1.64035 1.34036 -2.02993 0 -1.89651e+07 -1.83585e+07 -2.32364e+07
36 2 -5.76122 0.677718 2.94912 0.423981 0 -8.7504e+06 -2.11181e+07 -2.81459e+07
37 1 -7.31289 -1.42091 3.82548 -1.82044 0 -9.50555e+06 -2.33726e+07 -5.61563e+06
38 2 -5.89104 0.127192 6.65415 -3.87411 0 999453 -1.22096e+06 1.63578e+06
39 1 -7.44854 1.70745 -7.66648 -3.66314 0 1.15511e+06 1.6241e+06 1.37766e+06
40 2 -6.2354 3.46859 -5.92181 -2.90416 0 -7.52816e+06 -1.32028e+07 -1.04022e+07
41 1 -7.15205 1.34235 -4.21807 -2.83971 0 -1.30895e+07 -1.82698e+07 -2.29824e+06
42 2 -6.3057 3.30097 -2.47309 -2.22588 0 -1.0622e+07 -2.6626e+07 -2.56646e+06
43 1 -7.68919 1.44579 -1.59597 -2.78858 0 -1.66402e+07 -1.40738e+07 -1.52625e+07
44 2 -6.03484 2.65651 -0.097842 -5.18324 0 -6.36484e+06 -543624 -4.93458e+06
45 1 -7.71083 1.75932 1.11178 -3.07188 0 -3.23891e+06 -180982 -8.00776e+06
46 2 -5.41574 2.88788 2.79938 0.0368442 0 -7.29319e+06 -3.28075e+07 -1.86724e+07
47 1 -7.14527 4.26043 -7.58744 -2.83869 0 -2.62815e+06 -1.94571e+06 -1.10841e+07
48 2 -5.48894 5.65438 -6.09285 -3.79113 0 -6.93496e+06 -5.09604e+06 -3.02135e+06
49 1 -7.31219 4.86725 -5.01396 -3.07821 0 -1.13968e+07 -1.10366e+07 -7.51822e+06
50 2 -6.28116 6.2964 -3.04397 -4.84636 0 -1.06037e+06 -3.39916e+06 -1.31574e+06
51 1 -7.31502 4.73599 -1.83104 -2.60804 0 -1.56498e+07 -3.04117e+07 -7.12216e+06
52 2 -5.81302 6.22739 -0.333891 -3.01335 0 -7.55577e+06 -8.20126e+06 -8.7987e+06
53 1 -6.82801 4.77439 1.02981 -3.10535 0 -242765 -1.34536e+06 -1.6161e+06
54 2 -2.67009 -9.22983 3.13379 -3.63512 0 537671 307329 1.98251e+06
55 2 -2.51873 -9.1834 6.20194 -3.69801 0 1.39018e+06 2.33025e+06 2.47038e+06
56 2 -2.74359 -5.67312 -2.56163 -5.13011 0 1.04213e+06 -946632 -1.39591e+06
57 1 -4.44953 -7.65572 -1.8942 -2.89069 0 2.05187e+06 1.80484e+06 1.33429e+06
58 2 -3.11401 -5.94421 -0.015657 -5.14465 0 -391659 -472300 396068
59 1 -4.29212 -7.17907 1.39291 -3.38225 0 211307 -606152 261990
60 2 -2.4298 -6.00076 3.71662 -1.15396 0 -2.89144e+07 -2.53007e+07 -3.26947e+06
61 1 -4.1869 -7.6869 4.08111 -3.67008 0 -703999 -700698 1.65189e+06
62 2 -2.72258 -5.98834 6.12676 -5.71812 0 -4.83264e+06 -263414 -2.65446e+06
63 1 -4.23286 -7.45043 7.16368 -3.48434 0 -4.24813e+06 -2.91577e+06 -2.03313e+06
64 2 -3.32477 -6.05559 9.18469 -3.10012 0 -2.24851e+06 -1.57016e+07 -3.10609e+06
65 2 -2.80349 -3.28156 -6.0963 -4.44096 0 1.3096e+06 788090 2.6066e+06
66 1 -4.25937 -4.67995 -4.59467 -3.25745 0 181401 520692 -569901
67 2 -2.85049 -3.25057 -3.02564 -3.67843 0 -1.00235e+07 -2.10822e+07 -5.92901e+06
68 1 -4.20647 -4.08693 -1.30829 -2.69243 0 -1.31041e+07 -1.43266e+07 -2.5724e+07
69 2 -3.28341 -3.18872 0.036769 -1.31506 0 -8.7202e+06 -1.01574e+07 -2.71625e+07
70 1 -4.22064 -4.25818 2.55058 -3.46151 0 -301747 -1.7654e+06 -6.67549e+06
71 2 -2.69592 -2.56359 3.18412 0.247571 0 -3.56644e+07 -4.77764e+06 -2.65722e+07
72 1 -4.17915 -4.50852 4.63281 -3.412 0 95104.3 -1.80391e+06 -1.36243e+07
73 2 -3.10105 -2.97737 5.76515 4.77335 0 -5.8693e+07 -1.49213e+07 -4.04032e+07
74 1 -4.35086 -3.7156 6.856 25.4666 0 -4.55289e+07 -2.31025e+08 -4.71265e+07
75 2 -2.66113 -3.3922 8.7842 -5.50922 0 -3.78481e+06 -2.19433e+06 -4.49783e+06
76 1 -4.04722 -4.39409 10.109 -2.94014 0 -5.82092e+06 -1.57576e+07 -9.46759e+06
77 2 -3.08371 0.313932 -9.38372 -3.91819 0 -1.41686e+06 135952 -2.59066e+06
78 1 -4.31028 -1.38473 -7.85247 -3.56586 0 991093 1.02526e+06 73927.5
79 2 -2.22164 0.30016 -6.7591 6.37696 0 -3.23744e+07 -4.82008e+07 -3.90604e+07
80 1 -4.31933 -1.598 -4.38401 -3.98617 0 -946440 628226 -1.13463e+06
81 2 -3.10699 0.07444 -2.98126 -5.60863 0 -4.15738e+06 -4.8647e+06 601839
82 1 -4.11452 -1.76036 -1.72687 -3.78225 0 -4.85274e+06 -2.81792e+06 -1.02361e+06
83 2 -3.01124 -0.087946 0.41377 -2.87639 0 -2.42341e+07 -3.60384e+06 -2.12724e+06
84 1 -4.25344 -1.77862 1.66572 -3.98834 0 -1.03785e+06 1.34556e+06 -613727
85 2 -2.22821 0.420321 2.4384 0.853639 0 -2.50699e+07 -1.66438e+07 -3.62033e+07
86 1 -4.52154 -1.01649 4.19062 -3.99587 0 1.53847e+06 -1.20098e+06 -2.07792e+06
87 2 -2.73423 0.342585 5.63202 -5.42556 0 -3.31631e+06 -963121 725400
88 1 -4.39349 -2.37571 7.11013 22.9864 0 -3.23641e+07 -2.21189e+08 -4.42803e+07
89 2 -2.94419 -0.267174 9.41866 -3.85215 0 -1.83914e+06 858347 740546
90 1 -4.80673 1.48386 -7.6166 -3.63458 0 612977 -449973 -3.59132e+06
91 2 -2.4335 2.69112 -5.79782 2.23815 0 -1.84744e+07 -2.98897e+07 -3.52664e+07
92 1 -4.37246 1.32061 -4.50169 -3.77698 0 -999834 540839 -786761
93 2 -2.80803 2.94307 -3.11247 -5.22219 0 -3.90908e+06 -5.14225e+06 -6.51328e+06
94 1 -4.49172 1.65076 -1.42638 -3.9308 0 -466104 595966 -185464
95 2 -2.38986 2.75083 0.524595 -3.12528 0 -1.7523e+07 -3.07653e+06 -3.25118e+06
96 1 -4.9641 1.57077 1.56636 -1.1066 0 -1.04414e+07 -3.08815e+07 -4.70703e+07
97 2 -2.78332 2.93629 2.83374 -4.75549 0 -1.11837e+07 -1.01463e+07 -2.64605e+06
98 1 -4.52418 1.43884 4.66014 -3.75075 0 -2.1335e+06 553376 450192
99 2 -2.7604 2.91512 6.18271 -5.41464 0 -133085 -1.70759e+06 580460
100 1 -4.28289 1.86161 7.60882 -3.44568 0 -1.83982e+06 -852762 -2.44716e+06
101 2 -3.11798 2.95514 9.15179 -3.37868 0 -283102 -497077 -2.06558e+06
102 1 -4.19152 4.62523 -7.62064 -3.07244 0 203044 -516373 -1.35843e+06
103 2 -2.48283 5.96067 -5.98356 -1.59051 0 -4.65676e+06 -1.62064e+07 -1.83676e+07
104 1 -4.4365 4.5659 -4.30973 -3.93334 0 2.0071e+06 2.17369e+06 1.86044e+06
105 2 -2.61918 6.38431 -2.73991 6.07072 0 -2.6549e+07 -6.11345e+07 -2.66756e+07
106 1 -4.36921 4.83714 -1.71956 -3.94324 0 844200 873619 1.20492e+06
107 2 -2.77031 6.0998 -0.08927 -5.71729 0 -1.68071e+06 1.91349e+06 -4.12379e+06
108 1 -4.1961 4.38484 2.01984 -3.12183 0 -8.23952e+06 -1.1017e+07 -5.02281e+06
109 2 -3.17136 5.77295 3.24566 -1.51621 0 -7.25251e+06 -1.0832e+07 -2.29749e+07
110 1 -4.13686 4.8197 4.59343 -2.35123 0 -1.14563e+07 -9.28654e+06 -2.07638e+07
111 2 -2.87174 5.86851 5.93434 -2.47039 0 -6.92461e+06 -6.01217e+06 -1.03227e+07
112 1 -4.57971 7.94053 -4.68535 -3.12599 0 1.5443e+06 2.29188e+06 1.62577e+06
113 2 -3.11693 9.05714 -3.00902 -3.5168 0 -983918 -8.12906e+06 -730275
114 1 -4.54551 7.39863 -1.55254 -3.48144 0 -7.70348e+06 -6.28491e+06 -5.30678e+06
115 1 -4.30168 7.49369 1.24697 -3.1565 0 1.52081e+06 1.28686e+06 1.76628e+06
116 2 0.216921 -9.37256 -0.542864 -3.31315 0 2.27493e+06 3.978e+06 1.93124e+06
117 2 -0.069653 -5.98532 -6.05478 -3.49278 0 -3.46679e+06 -1.09055e+06 -2.29851e+06
118 2 0.591777 -5.66238 -3.18174 -5.33259 0 -1.34061e+06 -957144 789116
119 1 -1.36628 -7.73073 -1.6316 -3.31512 0 2.9209e+06 2.96464e+06 1.2765e+06
120 2 0.059927 -5.82367 -0.367924 -5.88186 0 1.92088e+06 1.60471e+06 -153798
121 1 -1.20396 -6.96635 1.3562 -3.69822 0 1.59843e+06 1.38917e+06 2.86338e+06
122 2 0.268074 -5.71289 2.77552 -5.05648 0 -5.20375e+06 629302 -7.23061e+06
123 1 -1.29298 -7.42467 4.43344 -2.94304 0 -5.76271e+06 -1.42142e+07 -1.73985e+06
124 2 -0.086105 -5.91358 6.06163 -3.4906 0 -5.72101e+06 -3.59841e+06 -7.7245e+06
125 1 -0.923023 -7.13925 8.06817 -2.97314 0 1.41578e+06 376708 1.21357e+06
126 2 -0.084398 -2.64296 -9.10824 -4.06571 0 -447187 -1.34766e+06 -1.957e+06
127 2 0.807183 -3.14967 -6.40169 8.44604 0 -3.95352e+07 -2.76111e+07 -6.23272e+07
128 1 -1.54126 -5.05382 -4.79953 -3.58127 0 -3.06913e+06 -516962 -1.7605e+06
129 2 -0.081921 -2.86062 -3.03048 -1.27695 0 -8.02042e+06 -1.91426e+07 -2.4009e+07
130 1 -0.794877 -4.12691 -1.79995 -2.36966 0 -1.02694e+07 -3.10627e+07 -2.67695e+07
131 2 -0.123914 -2.75765 -0.516564 -3.52814 0 -1.06044e+06 -9.68383e+06 -1.57652e+07
132 1 -0.808358 -4.05787 1.24753 -3.80852 0 1.91739e+06 -390216 -758944
133 2 -0.369553 -2.49777 2.86195 -1.05099 0 -1.70032e+07 -1.52023e+06 -3.03168e+07
134 1 -0.987341 -4.89419 4.22327 -2.47174 0 -2.56776e+07 -1.79417e+07 -1.1675e+07
135 2 0.148539 -2.8918 5.77579 -4.83266 0 -1.05196e+07 -1.815e+06 -3.07699e+06
136 1 -1.17275 -4.73536 7.37606 -3.54125 0 -4.17155e+06 -3.71298e+06 -5.31524e+06
137 2 0.183227 -2.75086 9.14104 -3.35619 0 -3.75401e+06 -1.89148e+06 -227391
138 1 -1.69962 -4.876 10.8192 -2.80605 0 -21658.5 1.04019e+06 866167
139 2 0.24715 -0.116636 -8.69584 -3.77178 0 -7.72202e+06 -3.66046e+06 -1.2797e+07
140 1 -1.32567 -1.04291 -7.63566 -1.94174 0 -1.48384e+07 -2.72371e+07 -9.06321e+06
141 2 0.768273 0.638268 -6.22358 27.605 0 -5.68205e+07 -8.10251e+07 -1.30146e+08
142 1 -1.06761 -1.20389 -4.22837 -3.4171 0 -2.13472e+06 -4.28989e+06 -5.94862e+06
143 2 -0.143967 0.315878 -2.8144 -4.84755 0 -6.57414e+06 -2.83533e+06 -789717
144 1 -1.8908 -1.75522 -2.24084 -2.74303 0 -1.41877e+07 -2.41953e+07 -7.83559e+06
145 2 0.065731 0.325372 0.334447 -2.37966 0 -1.36288e+07 -2.41492e+07 -8.91002e+06
146 1 -1.3382 -0.907439 0.972885 -2.07619 0 -3.75209e+07 -1.93599e+07 -5.98531e+06
147 2 -0.366612 0.092285 3.01228 0.546943 0 -2.61289e+07 -2.46351e+07 -2.27619e+07
148 1 -1.3704 -2.0218 4.37712 -1.45901 0 -4.31665e+07 -6.84877e+06 -5.41566e+07
149 2 -0.24634 0.310939 6.02201 -5.93633 0 -2.41054e+06 -824515 -1.26239e+06
150 1 -1.64392 -1.5534 7.09963 -4.01541 0 -659749 -146902 366689
151 2 0.12806 0.397008 8.62929 -3.69386 0 -1.29159e+07 -333060 -849490
152 1 -1.20857 -1.55834 10.1949 -3.18704 0 -5.54516e+06 -2.39633e+06 -2.35722e+06
153 1 -1.39281 1.30441 -7.82294 -0.0111607 0 -1.92635e+07 -3.53635e+07 -2.94428e+07
154 2 -0.214203 3.7164 -6.13788 5.50076 0 -4.38137e+07 -2.59318e+07 -3.58869e+07
155 1 -1.57151 1.68105 -4.67488 -1.33528 0 -2.01577e+07 -2.677e+07 -3.21785e+07
156 2 0.080335 3.3092 -2.90513 -5.39756 0 -4.63997e+06 -6.21226e+06 -3.21351e+06
157 1 -1.52049 1.44292 -1.70894 -3.73673 0 -5.00444e+06 -3.75614e+06 -2.25308e+06
158 2 -0.547072 2.6672 0.293598 4.93151 0 -1.66627e+07 -4.02879e+07 -4.4731e+07
159 1 -0.864585 1.54145 1.56282 1.19614 0 -2.28999e+07 -5.92469e+07 -6.73119e+07
160 2 0.240799 4.05232 3.23404 26.1776 0 -1.47328e+08 -2.57312e+07 -7.65569e+07
161 1 -1.39911 1.32844 3.91964 -1.41825 0 -2.51698e+07 -3.22874e+07 -3.97948e+07
162 2 0.208302 2.89599 5.48268 -4.544 0 -6.61701e+06 -7.61433e+06 -1.31272e+07
163 1 -1.55548 1.29045 7.92766 -3.57484 0 -1.50358e+07 -3.77255e+06 -1.31056e+06
164 2 0.412772 3.12163 9.37269 -4.10814 0 -2.11019e+06 2.17398e+06 1.35757e+06
165 1 -1.33722 4.37186 -7.19679 0.106271 0 -4.14023e+07 -1.65258e+07 -3.93821e+07
166 2 0.309439 5.8263 -6.2059 -2.66458 0 -1.11308e+07 -1.05067e+07 -1.11129e+07
167 1 -1.62454 4.21462 -4.36177 -3.47049 0 -3.4783e+06 -6.72603e+06 -7.72182e+06
168 2 0.722647 5.71737 -2.96378 15.6989 0 -5.50111e+07 -4.75557e+07 -7.59163e+07
169 1 -1.55671 4.48466 -1.80462 -3.89298 0 -2.66469e+06 -550566 -1.6049e+06
170 2 -0.113536 6.15366 -0.369046 -5.71409 0 1.28747e+06 746521 -3.29906e+06
171 1 -1.279 4.61639 1.31694 -3.84322 0 -1.35349e+06 -2.19284e+06 -3.12021e+06
172 2 -0.126673 5.96514 3.12424 -2.8971 0 -2.17622e+06 -2.14744e+07 266897
173 1 -1.20952 4.3368 4.43393 -2.95527 0 -1.94009e+07 -4.91318e+06 -1.50713e+07
174 2 0.373501 5.63571 6.07531 -4.04727 0 -633865 -306947 -605488
175 1 -1.56032 4.80357 7.18886 -3.30423 0 -3.26844e+06 -2.11247e+06 -2.85185e+06
176 1 -1.90471 7.15583 -4.62652 -2.54761 0 -2.24239e+06 -1.43934e+07 -2.28124e+07
177 2 0.225264 8.88138 -2.94098 -1.7469 0 -6.49689e+06 -9.13415e+06 -2.09832e+07
178 1 -1.86149 7.62661 -1.99114 0.568825 0 -2.09777e+07 -5.45449e+07 -2.0563e+07
179 2 -0.049571 9.16832 -0.377929 -3.81759 0 -690823 61600.3 -1.91078e+06
180 1 -1.47649 7.94993 1.21505 -3.3126 0 2.08587e+06 1.63377e+06 1.42139e+06
181 2 3.41392 -9.27657 -2.97378 -3.62944 0 1.61143e+06 1.88896e+06 1.52111e+06
182 2 3.59659 -6.66617 -6.38878 -3.63955 0 -1.1878e+06 226516 -764527
183 1 1.82845 -7.48968 -4.52911 -3.4522 0 998303 -1.02911e+06 3193.26
184 2 2.97986 -5.89486 -3.18045 -5.08292 0 -8.1631e+06 -2.00931e+06 -5.69797e+06
185 1 2.00654 -7.35176 -1.52423 -3.58401 0 -3.25602e+06 -4.69208e+06 -4.10722e+06
186 2 3.03778 -6.06798 -0.24893 -4.93603 0 -1.91731e+06 -4.31419e+06 -7.87818e+06
187 1 1.77338 -7.55539 1.47635 -3.44656 0 2.34286e+06 1.52888e+06 1.30715e+06
188 2 3.78769 -5.65832 2.79819 -4.91777 0 1.53988e+06 -688172 -1.33308e+06
189 1 2.01662 -7.5515 3.78949 -2.92521 0 2.87924e+06 2.63769e+06 210862
190 2 2.85802 -3.47001 -9.26949 -3.27498 0 -3.82929e+06 -826109 -7.1968e+06
191 1 1.66001 -3.90802 -7.55745 1.52853 0 -3.10707e+07 -2.62274e+07 -5.8653e+07
192 2 3.0959 -2.6559 -6.81517 2.16107 0 -3.56085e+07 -5.50429e+07 176559
193 1 1.7255 -4.18105 -5.08681 -2.97243 0 -1.90985e+06 -2.17523e+06 -8.55967e+06
194 2 3.5068 -2.80391 -3.25872 -5.62347 0 -3.18498e+06 -1.14044e+06 -4.24234e+06
195 1 1.84524 -3.72885 -1.57118 -3.24523 0 -1.75772e+07 -4.64281e+06 -1.01093e+07
196 2 3.2368 -3.04446 -0.374742 -3.52579 0 -1.69987e+07 -861524 -1.06526e+07
197 1 1.9048 -4.67158 1.41056 -3.98759 0 377302 146985 311839
198 2 3.01794 -2.76155 2.99709 -5.64813 0 413133 -544112 1.91978e+06
199 1 1.96728 -4.56724 4.32262 -3.84569 0 1.8543e+06 1.50619e+06 1.50609e+06
200 2 2.86686 -3.03992 6.02524 -3.59162 0 -7.51795e+06 -6.17468e+06 -1.50871e+06
201 1 1.88269 -1.6765 -10.4088 -2.92021 0 1.01509e+06 100505 -48437.7
202 1 2.06318 -1.27382 -7.09016 13.4757 0 -8.85584e+07 -1.38308e+08 -1.69325e+07
203 2 2.92866 -0.26623 -6.6848 24.1318 0 -1.08059e+08 -1.06715e+08 -2.84655e+07
204 1 2.10552 -1.20118 -4.65777 -3.14029 0 -1.1641e+06 -9.88709e+06 -5.5015e+06
205 2 3.24637 -0.230302 -2.39612 -4.29728 0 -4.78149e+06 -7.93755e+06 -7.8712e+06
206 1 1.69342 -1.36548 -1.4072 -3.68535 0 -3.99443e+06 -3.75694e+06 107761
207 2 3.30698 0.176534 -0.356842 -5.25401 0 1.33347e+06 846138 -7.40122e+06
208 1 1.79661 -0.831037 1.79463 -3.76313 0 -4.02178e+06 1.28696e+06 1.65303e+06
209 2 3.6423 -0.045099 2.59812 -3.66416 0 -1.90869e+07 -7.25185e+06 -2.38713e+06
210 1 1.61653 -1.38167 4.73388 -3.69233 0 -1.17264e+06 -2.1907e+06 -4.90067e+06
211 2 2.65168 0.570192 5.86385 0.21229 0 -1.29652e+07 -3.18455e+07 -1.94448e+07
212 1 1.52575 -1.70362 6.92005 -3.32738 0 -8.27613e+06 -6.13182e+06 -9.54539e+06
213 2 3.41014 0.131138 8.53756 -3.05984 0 -5.14175e+06 -1.10336e+07 -7.52725e+06
214 1 1.26399 1.51529 -7.1528 12.3717 0 -2.55401e+07 -6.87003e+07 -7.75216e+07
215 2 3.08369 2.67083 -6.22261 -3.27638 0 -1.12137e+07 -4.79707e+06 -3.7326e+06
216 1 1.57223 0.803422 -4.65738 -1.32914 0 -9.77007e+06 -7.75632e+06 -3.59702e+07
217 2 3.09233 3.33394 -2.57605 -2.35326 0 -2.00021e+07 -1.62744e+07 -4.15927e+06
218 1 1.99412 1.53546 -1.95963 -3.57856 0 -2.62919e+06 -9.38006e+06 -304348
219 2 3.93783 3.14189 -0.114314 -3.94017 0 -3.95786e+06 -4.60818e+06 -1.52054e+07
220 1 1.64718 1.67626 1.34546 -3.69119 0 -932763 780002 558023
221 2 2.989 2.95915 2.88661 -4.99037 0 -5.36822e+06 -5.91709e+06 -7.38498e+06
222 1 1.49062 1.40161 4.43607 -3.23264 0 -5.53379e+06 -6.26076e+06 -1.07762e+07
223 2 3.08508 3.57749 5.11222 -2.72861 0 -2.07809e+07 -1.20717e+07 -6.967e+06
224 1 1.98355 1.99223 6.79386 -2.15801 0 -1.00921e+07 -3.2214e+07 -1.86857e+07
225 2 3.05864 3.01204 8.50212 0.516855 0 -2.58451e+07 -2.60435e+07 -7.00225e+06
226 1 1.41995 1.28169 10.9623 -2.65252 0 2.31101e+06 1.42972e+06 3.16409e+06
227 1 1.93657 5.01491 -7.43843 -2.26234 0 -7.45564e+06 -6.86336e+06 -1.95584e+07
228 2 2.82155 5.98089 -6.00097 -1.43502 0 -1.02375e+07 -6.78546e+06 -1.75629e+07
229 1 1.28599 4.8465 -4.71347 -2.88778 0 -6.17175e+06 -8.44919e+06 -2.47777e+07
230 2 3.04895 6.35339 -2.99957 -5.1228 0 -1.16861e+07 -4.46733e+06 -987178
231 1 1.54563 4.98107 -1.95196 5.20453 0 -4.17036e+07 -3.26513e+07 -5.78986e+07
232 2 3.34766 6.31785 -0.211842 -5.48727 0 -653229 1.0835e+06 2.81543e+06
233 1 1.75279 4.25432 1.66758 -3.15145 0 -6.51362e+06 -921373 -1.26706e+07
234 2 3.10621 5.98143 3.21276 -4.00217 0 -891440 -6.30086e+06 -804394
235 1 1.4421 4.20688 3.93466 10.8009 0 -1.30078e+08 -5.2539e+06 -4.90172e+07
236 1 1.83717 4.24548 7.94806 -2.03889 0 -2.15244e+07 -2.3295e+07 -2.97451e+06
237 1 1.02676 8.15802 -4.57739 -2.70826 0 -2.79653e+06 -1.655e+06 -1.67254e+07
238 2 3.1328 8.98974 -3.01317 -3.79544 0 -2.53656e+06 -1.91971e+06 -493227
239 1 1.64311 7.97918 -1.59157 -3.72853 0 -5.17168e+06 -3.25215e+06 -4.18836e+06
240 1 1.69977 7.5369 1.37182 -3.32987 0 2.73846e+06 1.64899e+06 2.73445e+06
241 2 6.26976 -6.43658 -6.55499 -3.85119 0 127056 1.52018e+06 416101
242 1 4.89355 -7.37695 -4.69649 -3.59844 0 -422763 11220.5 -2.00399e+06
243 2 6.18252 -5.81617 -3.29625 -4.61598 0 -3.95843e+06 -3.47322e+06 -269408
244 1 4.4348 -7.36942 -1.92099 -3.67189 0 -581124 -891796 1.06801e+06
245 2 6.30005 -6.4343 0.191776 -4.13868 0 1.34394e+06 839664 1.75022e+06
246 1 4.81195 -7.35127 1.68527 -3.1108 0 -500425 -2.9282e+06 -844690
247 1 5.1716 -4.10763 -8.21104 -3.05993 0 1.42188e+06 2.20494e+06 -88051.1
248 2 5.79117 -3.09435 -6.14065 -2.53749 0 -5.18428e+06 -8.62113e+06 -1.54031e+07
249 1 4.82553 -4.63228 -4.5847 -3.56659 0 -4.22002e+06 -7.9162e+06 -3.97978e+06
250 2 5.94921 -3.09034 -3.55762 -3.94254 0 -5.0655e+06 -9.31155e+06 -1.02881e+07
251 1 4.3911 -4.821 -1.92024 -3.77014 0 -3.94118e+06 -2.48084e+06 -2.81242e+06
252 2 6.49463 -3.19221 0.675149 5.87156 0 -4.22114e+07 -3.14164e+07 -3.6354e+07
253 1 4.81819 -4.35774 1.13019 -3.75825 0 -4.07324e+06 -1.79664e+06 77068.6
254 2 6.3881 -3.07952 2.93327 -2.37954 0 -8.38626e+06 -7.14535e+06 -2.0255e+07
255 1 5.44132 -4.44243 4.75049 -3.23134 0 1.86674e+06 91399.2 906853
256 2 5.96495 -2.91652 6.44538 -4.18743 0 540217 -676469 -1.11694e+06
257 1 4.48043 -0.852014 -7.44263 -1.78124 0 -2.68624e+07 -3.03245e+06 -5.90882e+06
258 2 6.00737 0.299704 -5.85529 -4.80519 0 -1.56394e+06 -116984 1.19825e+06
259 1 4.85693 -1.87189 -4.86025 -3.0066 0 -1.04261e+07 -1.61144e+07 -1.80315e+07
260 2 6.10233 0.086591 -2.94638 -5.67598 0 -503765 -2.27479e+06 1.81288e+06
261 1 4.72303 -1.80107 -1.51138 -3.77217 0 -2.77566e+06 106462 -74076.4
262 2 6.36105 0.27781 0.207341 -5.64 0 182852 1.4698e+06 -1.03457e+06
263 1 4.92089 -1.26002 1.36783 -3.64102 0 -2.80029e+06 -6.47557e+06 -3.37324e+06
264 2 5.67618 0.238563 2.9591 0.970651 0 -1.50748e+07 -3.23126e+07 -2.84759e+07
265 1 4.75134 -1.78341 4.07805 -3.80007 0 -4.18984e+06 -1.32117e+06 -643604
266 2 6.49448 0.097107 6.11696 -4.1024 0 -4.89035e+06 -7.59262e+06 -1.19201e+07
267 1 4.678 -1.3895 7.70188 -3.37027 0 -3.48896e+06 -6.71971e+06 -1.15784e+06
268 2 6.02137 0.138013 8.78711 -4.21045 0 -4.40731e+06 -1.21595e+06 -3.17583e+06
269 2 6.04596 3.03082 -6.08154 -3.79458 0 -5.38357e+06 -1.06081e+06 737403
270 1 4.52512 1.99514 -4.91074 -3.36637 0 -1.30344e+07 -3.39481e+06 -7.87144e+06
271 2 6.12062 2.99145 -2.69725 -1.41821 0 -3.26528e+07 -2.07866e+07 -4.35295e+06
272 1 4.72872 1.92763 -2.07391 -2.43408 0 -3.10913e+07 -2.10439e+07 -7.30718e+06
273 2 6.25747 3.39226 -0.093706 -1.22429 0 -2.31678e+07 -6.89623e+06 -2.77965e+07
274 1 4.9907 1.46057 1.8139 -2.00146 0 -1.15328e+07 -3.42185e+07 -2.60569e+07
275 2 6.87007 3.01464 2.76217 2.513 0 -1.43865e+07 -2.90688e+07 -5.05016e+07
276 1 5.10765 2.09277 4.24634 -1.00813 0 -3.14858e+07 -1.01661e+07 -1.85508e+07
277 2 6.05027 3.03907 5.50613 0.496993 0 -1.66313e+07 -1.56704e+07 -2.78253e+07
278 1 4.39248 1.31378 7.1875 -3.40051 0 -6.56136e+06 -7.07877e+06 -8.36285e+06
279 2 6.1665 3.19465 9.39396 -3.69556 0 334737 1.92404e+06 837592
280 1 4.36845 1.91331 10.3695 -3.18546 0 399625 1.24401e+06 -500067
281 2 6.16204 6.34249 -6.48702 -3.39013 0 1.60027e+06 2.28174e+06 2.38571e+06
282 1 4.78475 4.68172 -4.49254 -4.00184 0 2.74894e+06 2.92793e+06 2.58017e+06
283 2 6.26414 6.87931 -3.32579 -3.71564 0 -1.49895e+06 2.59515e+06 1.97057e+06
284 1 4.50936 4.44366 -1.79349 -3.03358 0 -1.54817e+07 -1.36188e+07 -8.55325e+06
285 2 5.98478 6.49752 0.309768 -3.73169 0 -1.66956e+06 -98219.4 -598908
286 1 4.49738 4.38058 1.53112 -3.75111 0 1.65115e+06 -1.76755e+06 -4.87147e+06
287 1 4.50296 4.82236 4.46517 -2.75122 0 -1.39954e+07 -1.10155e+07 -3.74137e+06
288 1 4.21246 5.09811 7.96044 -2.71545 0 827879 1.44588e+06 1.63604e+06
289 1 4.4847 7.52964 -4.55483 -3.63057 0 -3.5639e+06 -945199 -2.43317e+06
290 1 4.7703 7.84508 -1.01994 -3.25942 0 -1.9157e+06 -3.68079e+06 -785623
291 1 7.63111 -4.65415 -5.05688 -3.23202 0 1.27317e+06 2.25695e+06 2.10136e+06
292 2 8.97158 -2.91595 -2.59246 -3.51606 0 -2.59246e+06 -8.83625e+06 -3.64836e+06
293 1 7.5284 -4.346 -1.63097 -3.47645 0 365408 380684 2.02367e+06
294 2 9.55026 -2.1441 -0.278571 -1.76607 0 -1.42849e+07 -6.31641e+06 -1.48405e+07
295 1 7.53689 -4.09865 1.59458 0.90529 0 -4.02483e+07 -3.16408e+07 -3.46346e+07
296 2 9.74874 -2.72991 2.78816 -3.54312 0 2.14213e+06 1.79055e+06 1.40116e+06
297 1 7.86254 -1.06419 -4.39364 -3.53752 0 1.94903e+06 3.02611e+06 1.55975e+06
298 2 9.3449 0.430635 -2.78097 -4.41811 0 -3.5398e+06 -3.48556e+06 -6.90823e+06
299 1 8.10118 -1.20288 -1.6764 -3.44519 0 -6.43805e+06 -9.61655e+06 -3.94429e+06
300 2 9.23619 0.472795 -0.36482 -2.12543 0 -2.34948e+07 -1.29326e+07 -8.62239e+06
301 1 7.79561 -1.51706 1.39765 -3.81822 0 91897.4 -3.11433e+06 299117
302 2 9.57741 0.166649 2.91049 -3.88359 0 5.02554e+06 1.58804e+06 2.68595e+06
303 1 7.27446 -1.17347 4.5986 -3.57334 0 252973 -1.25197e+06 -3.2415e+06
304 2 9.84418 0.016238 5.97756 -3.21222 0 4.81628e+06 1.0529e+06 2.88852e+06
305 1 7.75965 -0.922865 7.39025 -3.08492 0 -5.81572e+06 -2.63116e+06 -5.29288e+06
306 1 7.76858 1.79981 -4.58475 -3.69473 0 508291 748869 724707
307 2 9.05736 3.18255 -2.80981 -4.34081 0 -4.06485e+06 -716432 -1.06013e+06
308 1 7.37496 1.65662 -1.8371 -3.51 0 -8.16933e+06 -6.45217e+06 -2.52525e+06
309 2 9.55226 2.66479 -0.287029 -3.18974 0 -7.64164e+06 -1.35082e+07 -4.44045e+06
310 1 7.79819 2.08854 1.36916 -2.43256 0 -7.21951e+06 -1.84183e+07 -1.39487e+07
311 2 9.02457 3.6912 2.45991 -2.18477 0 -1.30402e+07 -3.64549e+06 -5.20055e+06
312 1 7.02152 1.7492 4.25262 -1.51364 0 -2.47824e+07 -1.52679e+07 -1.75589e+07
313 1 7.37656 1.8301 7.49249 -3.38052 0 269507 -350555 901855
314 1 7.51439 4.24552 -4.37797 -3.55666 0 228239 337954 -1.07296e+06
315 1 7.88049 4.60163 -1.06925 -3.29624 0 1.47995e+06 1.12843e+06 -1.47656e+06
316 1 7.36183 4.17159 1.18038 -1.43251 0 -2.55203e+07 -2.78067e+07 -4.58244e+07
317 1 10.6857 -1.3251 -1.69875 -2.61314 0 -1.19666e+07 -6.16205e+06 -1.29118e+07
318 1 10.8056 1.23919 -1.19072 -2.02966 0 -3.24827e+07 -1.40355e+07 -1.11705e+07
