ITEM: TIMESTEP
134
ITEM: NUMBER OF ATOMS
318
ITEM: BOX BOUNDS ss ss ss
-1.0020352097628372e+01 1.0483959083832989e+01
-8.9727131479178883e+00 9.1931772272108372e+00
-1.0136973334757439e+01 9.9361793380342469e+00
ITEM: ATOMS id type x y z c_pe c_ke c_stress[1] c_stress[2] c_stress[3]
1 2 -8.60782 -3.08293 -3.36072 -4.42321 0 546971 -51584 -100158
2 2 -8.71745 -2.74559 0.164375 -4.90956 0 -372041 -351390 -70646.1
3 2 -9.11417 -2.69846 2.88432 -4.10938 0 -442664 204085 547949
4 2 -8.50533 0.103626 -6.55077 -4.87099 0 -16949.3 1.0192e+06 -83518.3
5 1 -9.70453 -1.33612 -4.96411 -3.31534 0 32676.6 359652 60844.2
6 2 -8.60428 -0.227256 -3.07582 -6.21337 0 -587414 -1.53004e+06 -753896
7 1 -10.0175 -1.76987 -1.73583 -3.31341 0 -98396 594637 409154
8 2 -8.75816 0.0287628 -0.1691 -5.05424 0 30357.6 528952 11965.3
9 2 -8.82793 3.01179 -6.27651 -4.45539 0 -435064 921463 987285
10 1 -9.83726 1.24641 -4.58493 -3.60206 0 -273720 544959 290961
11 2 -8.77596 3.24412 -3.30689 -5.36769 0 -188094 -498734 581801
12 1 -10.0101 1.48977 -2.00524 -3.49566 0 -158862 506323 457790
13 2 -9.07935 2.93054 -0.0408831 -4.42394 0 -182648 867769 803687
14 2 -8.76979 5.93504 -3.15745 -3.52716 0 184425 116291 377077
15 2 -6.02678 -5.8279 -0.00693838 -4.93528 0 159959 293306 175818
16 2 -5.94135 -5.92294 2.76648 -5.10179 0 -868812 -424359 -330377
17 2 -6.10492 -5.90241 5.50951 -4.79836 0 145662 444120 502033
18 2 -5.7999 -6.24566 8.39904 -3.87508 0 149958 264455 51184.5
19 2 -5.58494 -3.30254 -6.0789 -4.56009 0 130955 92870.4 418628
20 2 -5.70226 -3.17755 -3.27616 -5.7493 0 1.1559e+06 804485 552321
21 1 -7.28828 -4.1837 -1.47074 -3.73443 0 689410 -137746 992218
22 2 -5.76774 -2.9725 0.247355 -6.19607 0 408170 268119 -792568
23 1 -7.68454 -4.51545 1.69249 -3.73095 0 -49806.5 -151565 174849
24 2 -5.75114 -3.05288 2.94475 -6.19475 0 -906031 -96035.5 -385197
25 1 -7.67329 -4.28358 4.20927 -3.5858 0 -20595.9 761825 309407
26 2 -5.94227 -3.06799 5.7881 -5.36519 0 382603 1.07638e+06 407462
27 2 -5.86184 -3.28863 8.47548 -3.99334 0 -82460 665429 -148739
28 2 -5.68968 0.109863 -8.96577 -4.25142 0 85647.3 170279 -432919
29 1 -6.83962 -1.61032 -7.52564 -3.50987 0 107098 40011.7 286692
30 2 -5.6756 0.177873 -6.12256 -6.15893 0 -509676 -579745 -164807
31 1 -7.0954 -1.57044 -4.91436 -4.07811 0 760410 765913 576461
32 2 -5.82303 -0.0561456 -3.10039 -6.1786 0 -930186 200108 -113023
33 1 -7.05251 -1.68333 -1.54239 -4.15898 0 -1.16462e+06 -1.31031e+06 -1.3208e+06
34 2 -5.83209 0.114337 -0.178234 -6.21616 0 430159 -64141.8 -556134
35 1 -7.28766 -1.1761 1.68418 -4.07416 0 762937 862211 585917
36 2 -6.09883 0.4558 3.17649 -5.78108 0 -152121 -273623 -595394
37 1 -7.36519 -1.5165 4.23272 -3.78982 0 226115 721915 334625
38 2 -6.28802 0.230547 5.93187 -4.42761 0 11108 719327 268614
39 1 -6.9385 1.93588 -7.74381 -3.68539 0 641367 221707 233583
40 2 -5.56575 2.92192 -5.87738 -6.23089 0 -2.32167e+06 -1.01023e+06 -223469
41 1 -7.30409 1.46705 -4.54545 -4.16252 0 -500672 -300213 -330487
42 2 -5.78396 3.10013 -3.12376 -6.16522 0 168960 349481 -406487
43 1 -7.35174 1.66791 -1.74721 -4.17037 0 -610255 -494127 -540603
44 2 -5.69004 2.94733 -0.239278 -6.20682 0 -1.55231e+06 -868615 -796652
45 1 -7.34563 1.63467 1.3296 -3.93728 0 265731 739561 322865
46 2 -5.95142 3.21607 3.00381 -4.95348 0 386857 326973 -242610
47 1 -6.89805 4.41903 -7.2975 -3.50117 0 454092 352815 -390906
48 2 -5.74015 6.38357 -6.12183 -4.46495 0 427840 37810.6 889073
49 1 -7.20521 4.63076 -4.87493 -4.0139 0 324112 250629 -370085
50 2 -6.06879 6.12157 -3.014 -5.39802 0 -179694 213036 1.08027e+06
51 1 -7.45803 4.4262 -1.39143 -4.03285 0 394868 349801 -28593.1
52 2 -6.06648 6.29087 -0.0933495 -4.80562 0 259711 258790 1.09736e+06
53 1 -7.19108 4.32366 1.12254 -3.68441 0 400059 607608 153096
54 2 -2.6888 -8.82363 2.6148 -4.18309 0 408112 -583082 603330
55 2 -2.76282 -8.96986 5.42829 -4.21684 0 20318.7 -539880 413075
56 2 -2.60709 -5.87481 -2.73715 -5.10077 0 256763 139189 -30708.3
57 1 -4.21881 -7.05521 -1.17738 -3.34065 0 489612 -49354.2 244926
58 2 -2.45984 -5.90483 0.0922033 -6.13459 0 21879.7 697241 -525412
59 1 -4.27612 -7.28637 1.36217 -3.76231 0 405142 269602 1.00325e+06
60 2 -2.48862 -6.13324 2.86437 -6.208 0 -638059 -1.04134e+06 -892226
61 1 -4.42541 -7.41354 4.15995 -3.8663 0 323501 287373 689865
62 2 -2.52381 -6.18571 5.60288 -6.20321 0 -726724 -823282 -1.17715e+06
63 1 -4.4418 -7.55969 6.69186 -3.64898 0 29882.3 195132 245072
64 2 -2.5574 -6.41745 8.35142 -4.82548 0 881889 655551 -32862.3
65 2 -2.84515 -2.98112 -5.93701 -5.38653 0 -253407 -1.0424e+06 -212286
66 1 -4.05274 -4.79379 -4.51044 -3.55878 0 616400 -119745 510201
67 2 -2.78875 -3.00836 -3.02919 -6.16108 0 352315 263581 537544
68 1 -4.36819 -4.44082 -1.40293 -4.08947 0 755539 695556 836099
69 2 -2.92338 -2.8645 0.118675 -6.14269 0 -81792.7 652756 25269.3
70 1 -4.11715 -4.63884 1.64177 -4.17649 0 -624091 -706420 -120799
71 2 -2.98876 -2.67858 2.99126 -6.24597 0 -515987 -256071 -625757
72 1 -4.12329 -4.70871 4.24684 -4.16937 0 -443271 -428527 204892
73 2 -3.03739 -2.86088 5.73602 -6.19624 0 -164488 -592757 -1.00656e+06
74 1 -4.16008 -4.80456 6.87006 -4.18427 0 -422147 -944270 -405837
75 2 -3.11353 -2.82182 8.49506 -5.88812 0 -374801 257228 -549097
76 1 -4.12111 -4.80344 9.6792 -3.45671 0 30927.5 180049 -71030.4
77 2 -2.9477 0.0411281 -9.1406 -4.33042 0 627897 -320468 -482359
78 1 -4.28433 -1.65832 -7.61358 -3.85838 0 634311 283520 309354
79 2 -2.93467 0.216675 -6.32978 -6.2122 0 -977423 -154716 -314021
80 1 -4.1835 -1.30109 -4.61085 -4.152 0 106511 -675130 -120260
81 2 -2.67931 -0.194115 -2.79567 -6.22825 0 -816200 -734354 -656830
82 1 -4.45184 -1.65708 -1.55651 -4.16661 0 -307404 -105062 -112904
83 2 -2.84256 -0.0383253 0.086399 -6.17644 0 984654 554642 702325
84 1 -4.67997 -1.07726 1.72642 -4.16759 0 -369791 -442978 13643.6
85 2 -2.87918 0.15663 3.0874 -6.16099 0 290528 230748 40195.3
86 1 -4.61321 -1.23258 4.47585 -4.18561 0 -1.18141e+06 -1.02102e+06 -326913
87 2 -2.79474 -0.118358 5.88763 -6.25133 0 -84404.3 -606056 -177556
88 1 -4.72447 -1.17301 7.31502 -3.94911 0 292702 391083 724775
89 2 -2.87508 -0.0196672 8.83122 -4.68823 0 458244 1.12928e+06 -19193.5
90 1 -4.27362 1.98857 -7.90818 -3.82841 0 780553 404539 183645
91 2 -2.91601 3.04471 -5.96759 -6.21212 0 -2.10998e+06 -508904 -137068
92 1 -4.07384 1.32815 -4.29313 -4.17341 0 -654707 -1.12732e+06 -932353
93 2 -2.83944 3.14747 -3.08172 -6.20842 0 -63154.6 -725648 -142082
94 1 -4.17284 1.47825 -1.67692 -4.16237 0 -370838 -541849 -379779
95 2 -2.95822 3.13666 0.0324673 -6.18724 0 -614581 45677.8 148593
96 1 -4.4097 1.53678 1.5278 -4.17041 0 -535595 -488347 -438141
97 2 -3.02142 3.20599 2.92161 -6.20298 0 307190 357200 -430713
98 1 -4.39087 1.68145 4.70384 -4.09041 0 685429 887608 285206
99 2 -3.09923 3.33405 6.19937 -5.75933 0 -109019 -102974 -185002
100 1 -4.3781 1.41305 7.19169 -3.76624 0 434432 608937 92632.1
101 2 -2.89681 2.94166 8.96277 -3.8409 0 735543 930198 174845
102 1 -4.37147 4.55724 -7.41102 -3.66999 0 754857 459694 -25076.1
103 2 -2.91654 6.27155 -6.14806 -4.97506 0 297011 -210359 -426055
104 1 -4.29604 4.78273 -4.45433 -4.16637 0 -188521 -743399 -333821
105 2 -2.61048 5.94867 -2.9781 -6.21627 0 -1.13318e+06 -1.40221e+06 -812108
106 1 -4.46109 4.70505 -1.5961 -4.15563 0 -439185 -446101 -240027
107 2 -2.76355 5.96435 -0.201206 -6.20703 0 -998962 -364028 -2.04002e+06
108 1 -4.56902 4.74231 1.38137 -4.07694 0 731682 513621 833764
109 2 -3.00423 6.09221 3.10194 -5.30328 0 657251 390865 101311
110 1 -4.53612 4.55318 4.57029 -3.62375 0 -16492.7 267726 325616
111 2 -3.05202 6.20918 5.92811 -3.95059 0 325791 98734.8 380682
112 1 -4.21485 7.43371 -4.18811 -3.81753 0 592429 30786.4 151514
113 2 -2.69911 9.19033 -3.23398 -3.94961 0 1.2471e+06 -513111 327031
114 1 -4.25151 7.46432 -1.66195 -3.7477 0 904593 496417 935360
115 1 -4.16782 7.25315 1.25195 -3.44589 0 344449 -241757 624165
116 2 0.906718 -8.89727 -0.211059 -4.05755 0 894318 -658736 973943
117 2 0.349378 -6.22693 -5.96428 -4.19489 0 -93430.6 332381 324856
118 2 0.11846 -5.71782 -3.13221 -5.88473 0 386982 827320 -23737.8
119 1 -0.778102 -7.26078 -1.30761 -3.71092 0 336703 405050 689628
120 2 0.387365 -5.57014 0.154362 -6.22366 0 -105500 -1.17726e+06 -1.28225e+06
121 1 -0.839284 -7.64433 1.2803 -3.87237 0 1.13131e+06 445410 1.44246e+06
122 2 0.222599 -5.9329 2.84747 -6.19368 0 -646478 205567 -764393
123 1 -0.7889 -7.89553 4.149 -3.75092 0 328413 -89795.6 968063
124 2 0.236894 -6.02845 5.73412 -5.04253 0 -98046.6 604728 -113917
125 1 -0.999698 -7.91828 6.88711 -3.29355 0 258476 259964 775288
126 2 0.229232 -3.06869 -8.94446 -4.27798 0 183530 137611 -174538
127 2 -0.112624 -3.02483 -6.22449 -5.90813 0 132019 1.1688e+06 506638
128 1 -1.46574 -4.78545 -4.92002 -3.86851 0 498357 247117 -108.435
129 2 0.0309873 -2.78635 -3.2815 -6.13608 0 187165 769579 565880
130 1 -1.15112 -4.11307 -1.3388 -4.17994 0 128109 -670734 -347208
131 2 0.385548 -2.80548 0.26898 -6.1778 0 -542136 -363028 -660064
132 1 -1.35498 -4.11129 1.70996 -4.17621 0 -1.1235e+06 -1.40107e+06 -587947
133 2 0.479059 -3.09819 3.06251 -6.21945 0 -872297 -304528 -643927
134 1 -1.43364 -4.24333 4.35365 -4.16744 0 -382883 -589244 328213
135 2 0.537736 -3.30178 5.8876 -6.00427 0 194280 297688 272085
136 1 -1.4301 -4.3724 7.15789 -4.13531 0 874558 405559 606092
137 2 0.358086 -3.21354 8.79009 -4.42008 0 -489443 258415 165644
138 1 -1.62765 -4.46771 9.62898 -3.5271 0 -19203.9 594424 -255490
139 2 -0.105375 0.195718 -9.16648 -4.63735 0 1.17521e+06 681762 -392386
140 1 -1.66358 -1.70694 -7.87902 -3.91735 0 734906 811037 419816
141 2 -0.258367 0.144386 -6.44028 -6.17231 0 -1.69468e+06 -197243 -1.01121e+06
142 1 -1.51259 -1.23779 -4.73389 -4.16969 0 86993.1 -631150 -1.12271e+06
143 2 0.120077 0.0562666 -2.95089 -6.2101 0 -371309 381284 571434
144 1 -1.17106 -1.60888 -1.27504 -4.15987 0 -168827 -647504 -549439
145 2 0.148342 0.158232 0.047469 -6.21006 0 310194 -175709 -59341.3
146 1 -1.20855 -1.4042 1.73707 -4.15977 0 -61287.9 153074 264725
147 2 -0.0941937 0.321857 3.24253 -6.2325 0 -479084 -291088 -924392
148 1 -1.04229 -1.71028 4.51677 -4.16052 0 -3416.38 -172477 470618
149 2 0.101418 0.135932 5.95435 -6.17745 0 -562812 -509651 -1.24198e+06
150 1 -1.13894 -1.77401 7.08098 -4.15747 0 -742824 -669531 -386922
151 2 0.0607259 0.00834362 8.79831 -5.36986 0 805118 1.35524e+06 -396492
152 1 -1.32158 -1.77354 9.93333 -3.4573 0 465612 756734 -130020
153 1 -1.77507 1.98716 -8.05536 -3.78062 0 311835 250572 -51522
154 2 -0.241744 2.93988 -6.31925 -6.16096 0 -1.84704e+06 -904162 447029
155 1 -1.49326 1.40904 -4.44607 -4.18083 0 -59662.3 -101585 -315869
156 2 0.113812 2.98311 -3.16084 -6.15434 0 -155447 279974 916473
157 1 -1.41616 1.64242 -1.42562 -4.17447 0 113504 -147758 97729.5
158 2 0.255265 3.01912 0.142047 -6.20759 0 -292596 -279769 41460
159 1 -1.44263 1.68664 1.49122 -4.17012 0 -478964 -332842 -352619
160 2 0.117443 3.13997 3.11201 -6.14999 0 288780 -10260.6 7271.81
161 1 -1.73472 1.8877 4.69321 -4.17823 0 -379161 -187927 13811.9
162 2 0.163195 3.07218 5.94903 -6.22932 0 -446771 -337986 -382546
163 1 -1.41588 1.56159 7.32901 -4.17775 0 -1.29855e+06 -1.52366e+06 -1.07446e+06
164 2 0.0312623 3.10103 8.84558 -4.71339 0 912247 597744 -108848
165 1 -1.76129 4.50699 -7.67169 -3.5409 0 833656 132116 -204306
166 2 -0.168962 6.27619 -6.60215 -4.75755 0 39451.6 119138 547577
167 1 -1.28516 4.66005 -4.71936 -4.15767 0 -509210 -174143 -459892
168 2 0.175034 5.97594 -2.9499 -6.16658 0 -62252.7 336877 394446
169 1 -1.21346 4.26605 -1.4368 -4.16128 0 -1.40059e+06 -1.84105e+06 -1.43318e+06
170 2 0.0633213 6.04048 -0.158299 -6.19843 0 -589830 -667680 -1.34027e+06
171 1 -1.35861 4.66055 1.58848 -4.17313 0 211059 263717 434446
172 2 -0.107749 6.42995 3.13526 -5.22649 0 864160 146875 -248465
173 1 -1.35073 4.56144 4.58268 -4.17602 0 -960353 -685539 -489722
174 2 -0.212562 6.59007 5.89458 -4.35026 0 577651 -128343 340423
175 1 -1.32946 4.74425 7.34525 -3.80675 0 216011 398103 361319
176 1 -1.23733 7.49094 -4.55021 -3.93351 0 616197 327068 284071
177 2 0.295254 8.79117 -2.9114 -4.56815 0 1.03903e+06 -256111 552118
178 1 -1.6686 7.82174 -1.36887 -3.94107 0 -150208 -243625 -6026.59
179 2 0.24709 8.82541 -0.0676798 -4.13756 0 -250347 -526587 630433
180 1 -1.53937 7.53393 1.34104 -3.71847 0 830772 266481 723262
181 2 2.88101 -8.93185 -2.52009 -4.1046 0 649377 -553415 811468
182 2 3.16784 -6.03537 -5.82708 -4.99724 0 -239280 -307958 -455965
183 1 1.71979 -7.46109 -4.1365 -3.64832 0 611108 250559 176619
184 2 3.17615 -5.51916 -3.07458 -6.2182 0 -242667 -924428 -684534
185 1 1.71242 -6.93047 -1.53943 -4.17719 0 -437424 -884348 -223756
186 2 3.24618 -5.50839 -0.202884 -6.22675 0 -540849 -198012 -844538
187 1 1.93836 -7.23114 1.37985 -3.88218 0 1.31325e+06 705809 1.03317e+06
188 2 3.76435 -6.27214 3.04568 -5.14766 0 39487.9 227381 4843.75
189 1 1.804 -7.31216 4.10969 -3.42425 0 507561 -78632.3 528212
190 2 3.13796 -3.06894 -8.95864 -4.47257 0 110713 139872 -323609
191 1 1.69944 -4.51144 -7.36768 -3.87215 0 800738 418767 127944
192 2 3.10255 -2.61254 -6.17772 -6.21788 0 -338337 -98193.7 -595527
193 1 1.68909 -4.20579 -4.79184 -4.15851 0 -935317 -1.53027e+06 -1.0581e+06
194 2 2.87166 -2.53256 -3.31451 -6.21595 0 -897982 -1.10497e+06 -951906
195 1 1.56297 -3.99935 -1.62934 -4.16991 0 69905.7 19991 -294868
196 2 3.17045 -2.67574 0.271295 -6.19357 0 377022 555035 199568
197 1 2.20432 -4.63398 1.86633 -4.16922 0 -518523 -583585 -1.31321e+06
198 2 3.22022 -2.72824 3.09226 -6.23534 0 -1.5293e+06 -555609 -542458
199 1 2.16767 -4.77175 4.40372 -4.02403 0 -217013 -341676 13608.4
200 2 3.26677 -2.92163 5.9319 -5.07279 0 546000 -29141.4 -240279
201 1 1.65537 -1.34538 -10.1341 -3.19272 0 558359 225623 -172458
202 1 1.59539 -1.11565 -7.65298 -4.0913 0 -256665 -330891 -379771
203 2 3.1575 0.266236 -6.26011 -5.91074 0 -690302 229726 452062
204 1 1.26787 -1.15537 -4.99572 -4.17245 0 253956 297189 -322665
205 2 2.87051 0.197522 -3.3037 -6.21143 0 -463017 -836423 336104
206 1 1.6748 -1.33875 -1.43142 -4.16799 0 192419 334535 -185277
207 2 3.14573 0.179469 0.187342 -6.12508 0 420584 430193 345719
208 1 1.50019 -1.07738 1.88853 -4.18097 0 -613262 -752242 -523095
209 2 3.42419 0.115615 3.0577 -6.25206 0 -328782 -555995 -181494
210 1 1.6137 -1.22711 4.45943 -4.16097 0 -536898 -916469 -471703
211 2 3.32173 -0.0328445 5.93963 -6.22666 0 -801373 -327044 -937436
212 1 1.61356 -1.41205 7.35343 -4.08321 0 468909 378867 260897
213 2 3.40209 -0.0879715 8.72562 -4.95099 0 62494.4 -60711.4 -533921
214 1 1.49184 1.64773 -7.64364 -3.70554 0 831410 1.27754e+06 538799
215 2 3.13947 3.02247 -6.19222 -5.47908 0 322961 226283 447347
216 1 1.26152 1.43949 -4.91876 -4.16061 0 -629464 -390658 -980826
217 2 2.82928 2.99671 -3.35967 -6.19737 0 -249158 -545641 191504
218 1 1.67862 1.63182 -1.44767 -4.1688 0 11773.4 402943 -145562
219 2 3.14262 3.07784 0.220729 -6.19822 0 410267 308751 364059
220 1 1.66121 1.50445 1.82641 -4.16169 0 -896404 -1.06325e+06 -762804
221 2 3.0034 3.35257 3.03977 -6.22072 0 8798.53 -630423 -254804
222 1 1.84254 1.52458 4.56603 -4.18897 0 -224821 -457458 387062
223 2 2.86094 3.48777 5.86101 -6.06749 0 -839973 -269417 -320023
224 1 1.83608 1.52222 7.28402 -4.1627 0 -536788 -787509 124180
225 2 2.78138 3.57696 8.76474 -4.85089 0 18251.8 217429 -52914.4
226 1 1.78568 1.45224 9.8904 -3.52176 0 905942 492641 -162203
227 1 1.36133 4.37749 -7.38945 -3.57428 0 754624 805215 -432720
228 2 3.21447 5.83727 -6.16319 -4.72785 0 386668 310293 29693.8
229 1 1.18643 4.59852 -4.91238 -4.16688 0 -781614 333500 -518415
230 2 2.90184 5.76031 -3.33809 -6.23515 0 -595468 -1.11535e+06 -510814
231 1 1.75946 4.49087 -1.40082 -4.16399 0 252190 481083 -90842.2
232 2 3.37519 5.87398 0.198443 -5.85879 0 253196 -27302.2 609013
233 1 1.32561 4.82036 1.64527 -4.16461 0 -477895 -369289 54903.1
234 2 3.24103 6.1167 3.05833 -4.50579 0 419185 -319081 472094
235 1 1.47348 5.05785 4.59332 -4.01609 0 353019 18926.9 637569
236 1 1.19827 5.01341 7.22835 -3.65665 0 802360 128484 715669
237 1 1.39271 7.27322 -4.91818 -3.84243 0 783642 644752 310711
238 2 3.02704 8.53771 -3.39132 -4.10234 0 686304 -453297 133551
239 1 1.97084 7.32279 -1.31563 -4.01267 0 296949 633678 210032
240 1 1.62064 7.33267 1.45922 -3.73453 0 550947 -229107 556797
241 2 5.93005 -6.01628 -5.69025 -4.23747 0 249190 345981 529412
242 1 4.48405 -7.46831 -4.06961 -3.58491 0 967214 174207 292071
243 2 6.0435 -5.48265 -2.93642 -5.11958 0 611860 769296 513897
244 1 4.50665 -7.28798 -1.61403 -3.73456 0 323705 135024 398588
245 2 6.13852 -5.59646 -0.233361 -4.91399 0 76603.4 207449 124523
246 1 4.5504 -7.2351 0.926975 -3.38075 0 332645 -70487.2 -12311.3
247 1 4.50041 -4.52849 -7.31591 -3.66458 0 627127 336042 338459
248 2 5.972 -2.57337 -6.51441 -4.875 0 132143 62582.6 159369
249 1 4.65041 -3.87509 -4.61622 -4.16559 0 -246345 -643222 -41543
250 2 6.17405 -2.58936 -2.99983 -6.21458 0 -738622 -148702 -163599
251 1 4.31227 -3.74557 -1.71106 -4.14106 0 -1.1833e+06 -1.55648e+06 -875562
252 2 6.01715 -2.673 -0.188851 -6.23795 0 -257173 97621.9 -610159
253 1 4.84379 -4.2708 1.67063 -4.10517 0 896847 726736 584297
254 2 6.51727 -2.98272 3.12848 -5.74565 0 -968555 -302501 -284671
255 1 4.77394 -4.36316 4.28706 -3.80886 0 521781 225553 330259
256 2 6.42833 -3.21925 6.0086 -4.44008 0 514899 92552.3 585996
257 1 4.28743 -1.0761 -8.11874 -3.47382 0 990127 118138 92682.2
258 2 5.85662 0.203724 -6.52413 -4.84674 0 -271085 411958 202230
259 1 4.71498 -1.15129 -4.55344 -4.17759 0 -127148 338731 -534551
260 2 6.10907 0.198407 -2.8862 -6.21795 0 -629274 -745779 146373
261 1 4.29342 -1.18541 -1.66251 -4.16752 0 -653525 -250628 -727735
262 2 5.87985 0.199622 -0.0349126 -6.21408 0 -119289 -190214 268976
263 1 5.0207 -1.4714 1.82528 -4.15746 0 -497935 45368.2 -455059
264 2 6.36433 0.281737 3.15975 -6.1718 0 296594 285060 -97025.7
265 1 4.98496 -1.45496 4.53231 -4.16754 0 -1.23536e+06 -1.49823e+06 -965542
266 2 6.07763 0.336283 5.94278 -6.23343 0 -819609 -765987 -400134
267 1 4.99797 -1.65085 7.37451 -3.80966 0 573516 91361 338262
268 2 6.17827 0.222145 8.85229 -4.50791 0 318517 387650 83784.9
269 2 5.89729 2.98017 -6.48859 -4.45513 0 181583 316661 -86098.3
270 1 4.74199 1.5843 -4.5255 -4.1874 0 -477685 214965 -1301.5
271 2 6.19272 2.93845 -2.90162 -6.2176 0 -434561 -904448 -349354
272 1 4.22102 1.65903 -1.67871 -4.18242 0 -560250 439895 -148847
273 2 5.94358 2.99535 -0.157986 -6.2552 0 121088 -343050 -487978
274 1 4.80246 1.88716 1.87195 -4.15789 0 295294 45238.3 -110491
275 2 6.46605 3.16229 3.27385 -5.82248 0 65024.2 89829.3 -595392
276 1 4.46383 1.92371 4.60968 -4.17057 0 -526080 -626907 131653
277 2 6.32975 3.10509 5.95878 -5.10736 0 -722185 -570979 -757080
278 1 4.34866 1.91484 7.26343 -4.16975 0 -770106 -582456 291800
279 2 6.37779 3.06202 8.66963 -4.21343 0 405355 515315 -190292
280 1 4.3884 1.98651 9.79985 -3.54316 0 773737 149073 -294485
281 2 6.03372 5.79474 -6.36318 -3.88935 0 330997 341857 -115627
282 1 4.78139 4.34066 -4.45046 -4.19456 0 -597278 116779 -172422
283 2 6.43774 5.7305 -2.86862 -4.90845 0 212691 -182332 190490
284 1 4.33159 4.33761 -1.76568 -4.17763 0 -354197 376292 -303314
285 2 6.16454 5.86518 -0.122408 -4.55526 0 369982 -19444.1 37945.4
286 1 4.96275 4.54217 1.83544 -4.03438 0 367179 613561 477174
287 1 4.76107 4.59743 4.57972 -3.74649 0 669205 161876 1.13968e+06
288 1 4.66643 4.50443 7.27175 -3.46536 0 784536 -149118 553315
289 1 4.9059 6.99048 -4.41656 -3.68375 0 182300 155387 435966
290 1 4.46635 7.00989 -1.80221 -3.80399 0 -8655.16 36596.8 349548
291 1 7.2358 -3.96496 -4.86784 -3.66281 0 234270 958016 454425
292 2 8.91278 -2.58876 -3.37549 -4.49746 0 85755.2 446854 448136
293 1 7.88425 -3.94551 -1.50236 -3.8026 0 445665 734660 945889
294 2 9.4383 -2.72275 0.033768 -4.64782 0 -146375 227227 682204
295 1 7.59423 -4.09724 1.19308 -3.74302 0 76318.9 -54789.2 155371
296 2 9.21977 -2.70398 2.83179 -4.01836 0 -173182 279490 412007
297 1 7.32051 -1.07294 -4.89057 -3.90251 0 270082 950496 128386
298 2 8.83459 0.201714 -3.25133 -5.191 0 -839137 -297661 -618618
299 1 7.77265 -1.10157 -1.25792 -4.1797 0 -29753.5 389991 -185605
300 2 9.45981 0.141653 0.260434 -5.2496 0 -483251 -195012 177883
301 1 7.53238 -1.18618 1.36613 -4.17722 0 -422014 -97000.3 -198555
302 2 9.25922 0.100667 3.03694 -4.68609 0 -9154.25 752748 1.18281e+06
303 1 7.74282 -1.37521 4.70966 -4.05892 0 384836 377387 -84449.4
304 2 9.5089 -0.0699969 6.0336 -4.06831 0 -377432 77724 1.13863e+06
305 1 7.57346 -1.23421 7.18806 -3.65763 0 428592 527313 -140555
306 1 7.35737 1.59334 -4.86496 -3.8985 0 357692 980312 228512
307 2 8.98951 2.97502 -3.23648 -4.51631 0 -12097.4 169305 182616
308 1 7.81099 1.46962 -1.22797 -4.18847 0 -172016 414930 -471276
309 2 9.55569 2.99363 0.132667 -4.64579 0 -21034.2 48170 328768
310 1 7.56527 1.60415 1.30755 -4.18083 0 -182296 -73489.5 -785467
311 2 9.26179 2.96697 2.89732 -4.03658 0 -43093.9 304466 12235.7
312 1 8.09208 1.66068 4.82074 -3.97094 0 -123826 -30225.9 -298608
313 1 7.97896 1.47912 7.35853 -3.59805 0 161110 875788 502325
314 1 7.39069 4.22092 -4.82855 -3.69958 0 140583 511165 381016
315 1 7.97423 4.2118 -1.30194 -3.85033 0 376818 577313 673373
316 1 7.59307 4.25857 1.31147 -3.80545 0 99933.2 -124609 218010
317 1 10.4096 -1.14543 -1.76732 -3.45016 0 -72185.1 428760 466781
318 1 10.4811 1.43583 -1.71688 -3.4349 0 -63060.5 446266 473885
